/*--------------------------------*- C++ -*----------------------------------*\
  =========                 |
  \\      /  F ield         | OpenFOAM: The Open Source CFD Toolbox
   \\    /   O peration     | Website:  https://openfoam.org
    \\  /    A nd           | Version:  8
     \\/     M anipulation  |
\*---------------------------------------------------------------------------*/
FoamFile
{
    version     2.0;
    format      ascii;
    class       volScalarField;
    location    "1";
    object      p;
}
// * * * * * * * * * * * * * * * * * * * * * * * * * * * * * * * * * * * * * //

dimensions      [1 -1 -2 0 0 0 0];

internalField   nonuniform List<scalar> 
3600
(
97.3735
92.1027
86.7808
81.3836
75.9015
70.3434
69.8092
69.4806
69.1082
68.6977
68.2546
67.7835
67.288
66.7709
66.2342
65.6795
65.1079
64.5203
63.9174
63.2994
62.666
62.0164
61.3487
60.6593
59.9434
59.1947
58.4066
57.5735
56.6911
55.7572
54.7714
53.7348
52.6501
51.5212
50.3527
49.1503
47.9206
46.6707
45.4084
44.1422
42.8804
41.6311
39.9901
37.5512
35.1379
32.7501
30.386
28.0434
25.7199
23.4139
21.1242
18.8498
16.59
14.3442
12.1117
9.89114
7.68121
5.48001
3.28532
1.09465
97.38
92.1211
86.8079
81.4142
75.9288
70.3618
69.8266
69.4964
69.122
68.7095
68.2647
67.7923
67.2958
66.7779
66.2407
65.6855
65.1136
64.5259
63.9229
63.3049
62.6718
62.023
61.3564
60.6689
59.9553
59.2089
58.4229
57.5912
56.7097
55.7759
54.7897
53.7522
52.6661
51.5354
50.3648
49.1602
47.9279
46.6752
45.4099
44.1405
42.876
41.6245
39.9819
37.542
35.1287
32.7416
30.3783
28.0365
25.7136
23.4081
21.1187
18.8445
16.585
14.3395
12.1073
9.88733
7.67807
5.47766
3.28387
1.09416
97.3933
92.1589
86.8641
81.4778
75.9856
70.399
69.8616
69.528
69.1494
68.7329
68.2847
67.8097
67.3113
66.7919
66.2536
65.6976
65.1251
64.5369
63.9337
63.3158
62.6834
62.0359
61.3717
60.6879
59.9789
59.2374
58.4555
57.6269
56.747
55.8136
54.8264
53.7869
52.6981
51.5639
50.3893
49.18
47.9426
46.6841
45.4127
44.1372
42.8668
41.6107
39.9651
37.5232
35.1101
32.7244
30.3629
28.0227
25.7011
23.3965
21.1077
18.8339
16.5749
14.33
12.0986
9.87966
7.67174
5.47294
3.28095
1.09317
97.4141
92.2185
86.9531
81.5794
76.0763
70.4563
69.9152
69.5759
69.1904
68.7677
68.3144
67.8356
67.3342
66.8128
66.2729
65.7157
65.1422
64.5534
63.9498
63.332
62.7003
62.0548
61.3942
60.7159
60.0142
59.2803
58.505
57.681
56.8036
55.8705
54.8819
53.8395
52.7465
51.607
50.4262
49.21
47.9647
46.6978
45.4171
44.132
42.8525
41.5892
39.9387
37.494
35.0817
32.6985
30.3399
28.0022
25.6825
23.3792
21.0912
18.8181
16.5597
14.3156
12.0854
9.86802
7.66213
5.46576
3.27651
1.09167
97.4436
92.3033
87.0812
81.7276
76.2092
70.5358
69.9887
69.6405
69.2449
68.8134
68.3534
67.8695
67.3645
66.8403
66.2983
65.7396
65.1649
64.5751
63.9709
63.3531
62.7223
62.079
61.423
60.7523
60.0611
59.3382
58.5721
57.7544
56.8802
55.9475
54.9568
53.9103
52.8115
51.665
50.476
49.2504
47.9948
46.7163
45.4231
44.1247
42.8323
41.5585
39.9011
37.4532
35.0429
32.6637
30.3094
27.9752
25.658
23.3563
21.0694
18.797
16.5393
14.2962
12.0675
9.85227
7.6491
5.45601
3.27048
1.08963
97.4829
92.4174
87.2565
81.9351
76.3978
70.6409
70.0841
69.7221
69.3123
68.8694
68.401
67.911
67.4016
66.8743
66.3298
65.7692
65.193
64.602
63.997
63.379
62.7488
62.1079
61.4571
60.796
60.1194
59.4116
58.6578
57.8481
56.9778
56.0454
55.0518
54
52.8938
51.7382
50.5389
49.3016
48.033
46.7401
45.431
44.1153
42.8054
41.5167
39.8497
37.399
34.9927
32.62
30.2716
27.942
25.628
23.3282
21.0423
18.7706
16.5136
14.2717
12.0448
9.83216
7.63245
5.44354
3.26276
1.08702
97.5336
92.5659
87.4897
82.2204
76.6655
70.7781
70.2046
69.8208
69.3917
68.9346
68.4563
67.9595
67.4453
66.9143
66.3672
65.8044
65.2264
64.634
64.0279
63.4091
62.7792
62.1403
61.4949
60.8454
60.1889
59.5016
58.7635
57.9637
57.0978
56.1652
55.1678
54.1091
52.9938
51.8273
50.6154
49.3641
48.08
46.7698
45.4413
44.1039
42.7708
41.4612
39.7804
37.3286
34.9306
32.5674
30.2271
27.9032
25.5928
23.295
21.0101
18.739
16.4826
14.2418
12.0169
9.80741
7.6119
5.42815
3.25323
1.08379
97.5968
92.7535
87.7924
82.6084
77.053
70.9634
70.3549
69.936
69.4811
69.0074
68.5183
68.0142
67.4949
66.9603
66.4102
65.845
65.2651
64.6709
64.0632
63.4433
62.8129
62.175
61.5342
60.8974
60.2694
59.6099
58.8914
58.1031
57.2419
56.3084
55.3059
54.2387
53.1123
51.9327
50.706
49.4385
48.1364
46.8061
45.4547
44.091
42.7278
41.3879
39.6862
37.239
34.8559
32.5067
30.1767
27.8596
25.5531
23.2573
20.973
18.702
16.4459
14.2062
11.9835
9.77763
7.58713
5.40957
3.24172
1.0799
97.6732
92.9834
88.1753
83.1301
77.6328
71.2569
70.5409
70.0641
69.5773
69.0857
68.5857
68.0745
67.5501
67.0117
66.4587
65.891
65.3089
64.7126
64.103
63.4812
62.8493
62.2108
61.572
60.9462
60.3614
59.7393
59.0445
58.2688
57.4119
56.4765
55.4672
54.3896
53.2499
52.055
50.8114
49.5253
48.2029
46.8499
45.4726
44.0778
42.6763
41.2917
39.5541
37.1262
34.769
32.439
30.1216
27.8121
25.5096
23.2153
20.9312
18.6596
16.4033
14.1644
11.944
9.74231
7.5577
5.38749
3.22806
1.07527
97.7627
93.2559
88.6436
83.8144
78.529
71.9615
70.7634
70.1957
69.6752
69.167
68.6572
68.1394
67.6104
67.0684
66.5124
65.9422
65.3577
64.7591
64.1471
63.5228
62.8881
62.2467
61.6052
60.9802
60.4668
59.8949
59.2268
58.4637
57.6101
56.6713
55.6531
54.5627
53.4075
52.1949
50.932
49.6252
48.2804
46.9026
45.4967
44.067
42.6188
41.1663
39.3576
36.9881
34.6722
32.3668
30.0637
27.762
25.4632
23.1697
20.8847
18.6118
16.3545
14.1159
11.8979
9.70083
7.52309
5.36152
3.212
1.06984
97.8637
93.5664
89.19
84.6631
79.8866
74.8305
71.145
70.4142
69.8531
69.323
68.7989
68.2709
67.7341
67.1858
66.6246
66.0496
65.4604
64.857
64.2396
63.609
62.9666
62.3149
61.6573
60.9684
60.6353
60.1486
59.5154
58.7669
57.9154
56.9689
55.9358
54.8247
53.6451
52.4055
51.1139
49.7767
48.3995
46.9864
45.5403
44.0616
42.5443
40.9529
39.0374
36.8306
34.5717
32.2938
30.0053
27.7109
25.4148
23.121
20.834
18.5584
16.2989
14.0599
11.8442
9.65239
7.48265
5.33123
3.19328
1.06352
97.9737
93.9055
89.7904
85.6016
81.345
77.2061
74.0887
72.6469
71.7108
70.959
70.2878
69.6542
69.037
68.4239
67.8072
67.1818
66.5436
65.8893
65.2155
64.5188
63.7945
63.0339
62.2147
61.2561
60.9974
60.582
59.9897
59.2589
58.4074
57.4467
56.3877
55.2424
54.023
52.7403
51.4031
50.0184
48.591
47.1239
45.6174
44.0672
42.4591
40.7496
38.8221
36.6919
34.478
32.2246
29.949
27.6605
25.3656
23.0699
20.7791
18.4991
16.236
13.9956
11.7819
9.59601
7.43562
5.29608
3.17162
1.05621
98.0893
94.2614
90.4175
86.5645
82.761
79.2139
76.4291
74.6975
73.502
72.566
71.7632
71.0317
70.3384
69.6632
68.9931
68.3187
67.6327
66.9285
66.1997
65.4386
64.6354
63.7739
62.8223
61.711
61.4579
61.079
60.5139
59.7944
58.9387
57.9598
56.8707
55.6868
54.4237
53.0946
51.7094
50.2754
48.7968
47.2756
45.7101
44.0938
42.4104
40.6248
38.6797
36.5834
34.3986
32.1633
29.8974
27.6124
25.3167
23.0171
20.7204
18.4338
16.165
13.9216
11.7096
9.53045
7.38109
5.25549
3.14671
1.04782
98.2072
94.623
91.0478
87.5096
84.0846
80.9473
78.3903
76.5551
75.1998
74.1251
73.2128
72.3955
71.6333
70.9006
70.1804
69.4598
68.7283
67.9767
67.1954
66.3736
65.4974
64.5463
63.4875
62.2671
62.0045
61.6432
61.0936
60.3789
59.5145
58.5126
57.3878
56.1598
54.8483
53.4691
52.0334
50.5484
49.0181
47.4432
45.8212
44.1446
42.3984
40.5574
38.5918
36.5067
34.3374
32.1131
29.8525
27.5682
25.2691
22.9632
20.658
18.362
16.0848
13.8364
11.6254
9.45418
7.318
5.20886
3.11824
1.03826
98.3247
94.9813
91.6649
88.414
85.3047
82.4719
80.0917
78.24
76.7967
75.6257
74.6282
73.7395
72.9175
72.1336
71.3679
70.6047
69.8312
69.0356
68.2057
67.3282
66.3863
65.3576
64.2108
62.9037
62.6293
62.2751
61.7328
61.0173
60.1397
59.1096
57.942
56.6628
55.2971
53.8639
52.3751
50.8378
49.2553
47.6278
45.9519
44.2204
42.4206
40.5349
38.547
36.4602
34.296
32.0759
29.8163
27.5292
25.2241
22.909
20.5923
18.2835
15.9941
13.7378
11.527
9.36527
7.24517
5.15556
3.08593
1.02745
98.4395
95.3298
92.2584
89.2673
86.4253
83.8334
81.6027
79.7779
78.2955
77.0639
76.0045
75.0595
74.1879
73.3602
72.5544
71.7533
70.942
70.1067
69.2332
68.306
67.3064
66.2114
64.9918
63.6129
63.3273
62.9747
62.4342
61.7141
60.8198
59.756
58.5365
57.1969
55.7704
54.2787
52.7342
51.1434
49.5088
47.8298
46.1027
44.3207
42.4737
40.5492
38.5377
36.4416
34.2748
32.0529
29.7899
27.4968
25.1826
22.8554
20.5238
18.198
15.8916
13.6228
11.4109
9.26137
7.16136
5.09506
3.04962
1.01537
98.5504
95.6646
92.8229
90.067
87.4558
85.065
82.9677
81.1925
79.704
78.44
77.3396
76.3532
75.4425
74.5788
73.7393
72.9056
72.0615
71.1916
70.2801
69.3098
68.2608
67.11
65.8301
64.3912
64.0956
63.742
63.2004
62.4736
61.5608
60.4586
59.1743
57.7623
56.267
54.7125
53.11
51.4649
49.7783
48.049
46.2732
44.4445
42.5547
40.5948
38.5588
36.4486
34.2733
32.0448
29.7745
27.472
25.1457
22.8034
20.4533
18.1055
15.7755
13.4872
11.2723
9.13965
7.06542
5.02706
3.00927
1.00201
98.6564
95.9836
93.3566
90.8145
88.407
86.191
84.2167
82.5039
81.0317
79.7572
78.6337
77.6195
76.6803
75.7886
74.9221
74.0617
73.1903
72.2915
71.3481
70.3419
69.252
68.0552
66.7257
65.2369
64.9327
64.577
64.0333
63.3001
62.3701
61.2267
59.858
58.3576
56.7851
55.1635
53.5013
51.8012
50.0631
48.285
46.4627
44.5904
42.661
40.6678
38.6067
36.4789
34.291
32.0518
29.7705
27.4557
25.1146
22.7542
20.3818
18.0067
15.6443
13.3253
11.1042
8.99689
6.95657
4.95165
2.96512
0.987488
98.7572
96.286
93.8597
91.5136
89.2892
87.2299
85.3716
83.7286
82.2882
81.0201
79.8885
78.8588
77.9009
76.9894
76.1027
75.2217
74.329
73.4073
72.4388
71.4041
70.2816
69.0481
67.6787
66.149
65.8376
65.4798
64.9343
64.1974
63.2562
62.076
60.589
58.9789
57.3208
55.6291
53.9061
52.1511
50.3624
48.5369
46.6702
44.7567
42.7902
40.7652
38.6785
36.5309
34.3271
32.0738
29.7787
27.4488
25.0905
22.7094
20.3114
17.9032
15.4976
13.1281
10.8951
8.83001
6.83498
4.86962
2.91778
0.97201
98.8529
96.5723
94.3339
92.169
90.1119
88.1965
86.4491
84.8804
83.4826
82.2339
81.1066
80.0723
79.1049
78.1813
77.2812
76.3859
75.4781
74.5401
73.5534
72.4978
71.3513
70.0899
68.6893
67.1268
66.8097
66.45
65.9042
65.1683
64.2284
63.0358
61.3643
59.6176
57.8685
56.1061
54.3224
52.5132
50.675
48.8037
46.8946
44.9421
42.9405
40.8848
38.7723
36.6032
34.381
32.111
29.7994
27.4522
25.0745
22.6707
20.2446
17.7989
15.3378
12.8817
10.6255
8.63792
6.70272
4.78271
2.86825
0.955901
98.9436
96.8433
94.7816
92.7856
90.8837
89.1026
87.4621
85.9708
84.6233
83.404
82.2911
81.2616
80.2931
79.3648
78.4579
77.5547
76.638
75.6903
74.6927
73.6244
72.4623
71.1818
69.7583
68.1701
67.8484
67.4874
66.9426
66.2126
65.2915
64.1679
62.4343
60.4702
58.6052
56.7522
54.8898
53.01
51.1075
49.1775
47.2146
45.2129
43.1669
41.0717
38.9245
36.7251
34.4757
32.1805
29.8442
27.4713
25.0656
22.6299
20.1648
17.6672
15.1223
12.4574
10.2593
8.42694
6.56498
4.69381
2.81797
0.939595
99.0298
97.1006
95.2056
93.3683
91.6121
89.958
88.4215
87.0093
85.7179
84.5357
83.4457
82.4291
81.4667
80.5405
79.6332
78.7283
77.8092
76.8586
75.8575
74.7846
73.6159
72.3251
70.8865
69.2788
68.9533
68.5909
68.0475
67.3257
66.4274
65.3636
63.8102
61.7135
59.706
57.7248
55.7472
53.7633
51.7663
49.7502
47.7085
45.6351
43.5241
41.3706
39.1715
36.9258
34.6344
32.2996
29.9245
27.5117
25.0632
22.5793
20.057
17.4867
14.8422
12.0484
9.95927
8.22663
6.43055
4.6066
2.76859
0.923582
99.1119
97.3455
95.6089
93.9218
92.3036
90.771
89.3362
88.0044
86.7733
85.6342
84.5739
83.5769
82.6274
81.7095
80.8078
79.907
78.9916
78.045
77.0481
75.9794
74.8134
73.5217
72.0757
70.4529
70.1244
69.7596
69.2168
68.5024
67.623
66.5957
65.1022
62.9246
60.7974
58.696
56.6068
54.5213
52.432
50.332
48.2139
46.0708
43.8965
41.6859
39.4354
37.143
34.8087
32.4333
30.0183
27.565
25.0736
22.5425
19.9663
17.333
14.6159
11.7618
9.71889
8.04915
6.30615
4.52445
2.72174
0.908345
99.1904
97.5797
95.9943
94.4506
92.9644
91.5489
90.2137
88.9631
87.7955
86.7043
85.6792
84.7077
83.7767
82.8726
81.9819
81.091
80.1854
79.2494
78.2647
77.2092
76.0562
74.7739
73.3284
71.6935
71.3617
70.9923
70.4478
69.7385
68.8718
67.8612
66.3716
64.1175
61.8795
59.6629
57.4652
55.2805
53.1016
50.9202
48.7282
46.5178
44.2821
42.0157
39.7143
37.3754
34.9977
32.5812
30.126
27.632
25.0983
22.5218
19.8963
17.2094
14.4389
11.551
9.52803
7.89804
6.19568
4.44986
2.67873
0.894294
99.266
97.8049
96.3646
94.9587
93.5996
92.2979
91.0609
89.892
88.7903
87.7506
86.7652
85.824
84.9163
84.0309
83.1561
82.2802
81.3901
80.4714
79.5066
78.4741
77.3456
76.0849
74.6492
73.0027
72.6662
72.2881
71.7381
71.0313
70.1725
69.165
67.6481
65.3046
62.9539
60.623
58.3188
56.0378
53.7721
51.5124
49.2491
46.9738
44.6788
42.358
40.0067
37.6216
35.2008
32.7431
30.2476
27.7133
25.1383
22.5189
19.8484
17.1158
14.3042
11.3928
9.37778
7.77299
6.10087
4.38439
2.6405
0.881739
99.339
98.0225
96.7226
95.45
94.2142
93.0235
91.8835
90.7968
89.7627
88.7775
87.8352
86.9282
86.0479
85.1853
84.3308
83.4744
82.6051
81.7099
80.773
79.7736
78.6826
77.4588
76.046
74.3854
74.0403
73.6457
73.085
72.3787
71.5268
70.5157
68.9491
66.4944
64.0211
61.5735
59.164
56.7895
54.4405
52.1057
49.7744
47.4369
45.0847
42.7113
40.3112
37.8808
35.4172
32.9185
30.3831
27.8093
25.1943
22.5343
19.8228
17.0507
14.2055
11.2747
9.26118
7.67218
6.02202
4.32879
2.60763
0.870881
99.41
98.2341
97.0708
95.9279
94.8126
93.7309
92.6869
91.6826
90.7174
89.7889
88.8925
88.0228
87.1732
86.3368
85.5062
84.6734
83.8294
82.9635
82.062
81.106
80.0673
78.9009
77.532
75.8534
75.4881
75.0631
74.4842
73.7787
72.9382
71.9255
70.2878
67.6909
65.0792
62.5102
59.9967
57.5321
55.1037
52.6979
50.302
47.9052
45.4984
43.0741
40.6268
38.1519
35.6462
33.1071
30.5325
27.92
25.2666
22.5682
19.8191
17.0118
14.1375
11.1888
9.17298
7.59337
5.95867
4.28323
2.58037
0.861825
99.4795
98.4413
97.4117
96.3959
95.399
94.4248
93.4761
92.5543
91.659
90.7887
89.9403
89.1101
88.2937
87.4862
86.6824
85.8764
85.0616
84.2299
83.3705
82.4681
81.498
80.4158
79.1294
77.4406
77.0166
76.5359
75.9289
75.2272
74.4117
73.4128
71.6769
68.8927
66.1218
63.427
60.8117
58.2616
55.7588
53.2864
50.8299
48.3772
45.9183
43.4453
40.9522
38.434
35.8871
33.3086
30.6956
28.0455
25.3551
22.6204
19.8364
16.9971
14.0964
11.1299
9.10916
7.53441
5.90999
4.24755
2.55876
0.854604
99.5479
98.6454
97.7475
96.8572
95.9771
95.1094
94.2556
93.4164
92.5917
91.7806
90.9815
90.1925
89.411
88.6343
87.8593
87.0825
86.2999
85.5062
84.6946
83.8546
82.9692
82.0041
80.8717
79.2594
78.6341
78.0541
77.4079
76.7167
75.9513
75.0092
73.1311
70.0897
67.1371
64.315
61.6033
58.9741
56.403
53.8693
51.3565
48.8513
46.3432
43.8238
41.2866
38.7265
36.1396
33.5224
30.872
28.1854
25.4595
22.6903
19.8736
17.0045
14.0789
11.0944
9.06664
7.49332
5.875
4.22135
2.54269
0.849199
99.6158
98.8478
98.0806
97.3148
96.5508
95.7891
95.0298
94.2733
93.5194
92.7681
92.0191
91.2721
90.5266
89.7817
89.0368
88.2908
87.5421
86.789
86.0288
85.2575
84.469
83.6528
82.7867
81.7358
80.3367
79.5961
78.9029
78.2329
77.5545
76.7735
74.666
71.2548
68.1054
65.1634
62.3651
59.6658
57.0336
54.4446
51.8803
49.3265
46.7722
44.2087
41.6292
39.0287
36.4028
33.7481
31.0614
28.3396
25.5794
22.7773
19.9295
17.0323
14.0826
11.0794
9.04302
7.46843
5.85272
4.20416
2.53195
0.845558
99.6185
98.8557
98.0937
97.3327
96.5733
95.8157
95.0602
94.3068
93.5557
92.8068
92.0598
91.3144
90.5703
89.8267
89.083
88.3382
87.5909
86.8394
86.0813
85.3127
84.5282
83.7181
82.8644
81.9267
80.9008
80.1045
79.3985
78.7393
78.1012
77.4575
76.2909
72.3255
68.9991
65.9601
63.0913
60.3333
57.6487
55.011
52.4003
49.802
47.2045
44.5993
41.9795
39.34
36.6765
33.9854
31.2635
28.5076
25.7145
22.8808
20.0033
17.0789
14.1055
11.0828
9.03645
7.45833
5.84226
4.19548
2.52632
0.843617
99.6198
98.8595
98.0999
97.3413
96.5841
95.8285
95.0748
94.3231
93.5735
92.8258
92.08
91.3356
90.5924
89.8497
89.107
88.3633
87.6173
86.8676
86.1117
85.3467
84.5676
83.7672
82.9342
82.0558
81.1566
80.3769
79.6791
79.0355
78.4313
77.8672
77.0335
73.1662
69.7894
66.6955
63.7775
60.9745
58.247
55.5676
52.9159
50.2771
47.6396
44.9951
42.3369
39.6599
36.9601
34.2338
31.4778
28.689
25.8641
23.0001
20.094
17.1432
14.1462
11.1032
9.04546
7.46191
5.84286
4.19486
2.52556
0.843305
99.621
98.8631
98.1058
97.3494
96.5943
95.8407
95.0888
94.3387
93.5905
92.8442
92.0996
91.3563
90.6142
89.8728
89.1313
88.3891
87.6451
86.8979
86.1456
85.3857
84.6147
83.8279
83.0205
82.1923
81.3694
80.62
79.94
79.3175
78.747
78.2389
77.5176
73.8304
70.4777
67.3675
64.4223
61.5884
58.828
56.1142
53.427
50.7516
48.0773
45.3958
42.701
39.9881
37.2532
34.4929
31.7039
28.8833
26.0279
23.1346
20.2008
17.2241
14.2034
11.1392
9.06898
7.47826
5.85389
4.20189
2.52947
0.844558
99.6221
98.8664
98.1113
97.3571
96.6039
95.8522
95.1021
94.3536
93.6069
92.862
92.1186
91.3767
90.6359
89.8958
89.1559
88.4156
87.674
86.93
86.1821
85.4287
84.6674
83.8962
83.1142
82.327
81.5558
80.838
80.1804
79.5807
79.0401
78.5705
77.9009
74.374
71.0788
67.9802
65.0271
62.1757
59.3923
56.6512
53.9337
51.2259
48.5175
45.8013
43.0716
40.3242
37.5555
34.7623
31.9415
29.0901
26.2052
23.2837
20.3229
17.3208
14.2764
11.1901
9.10618
7.50673
5.87486
4.21627
2.53788
0.847325
99.6232
98.8696
98.1166
97.3643
96.6131
95.8632
95.1147
94.3679
93.6227
92.8792
92.1372
91.3966
90.6573
89.9188
89.1807
88.4426
87.7038
86.9635
86.2207
85.4744
84.7237
83.9682
83.2099
82.4558
81.7229
81.0343
80.3998
79.8228
79.3077
78.8656
78.228
74.8344
71.6091
68.5406
65.5953
62.7387
59.9412
57.1798
54.437
51.7002
48.9606
46.2116
43.4486
40.668
37.8666
35.0416
32.19
29.3091
26.3957
23.4469
20.46
17.4328
14.3644
11.2551
9.15654
7.54687
5.90544
4.23779
2.55066
0.851566
99.6242
98.8726
98.1215
97.3712
96.6218
95.8736
95.1268
94.3816
93.6379
92.8958
92.1553
91.4162
90.6783
89.9416
89.2055
88.4698
87.7341
86.9978
86.2605
85.5218
84.7818
84.0414
83.304
82.5771
81.874
81.2112
80.5986
80.0425
79.5491
79.1278
78.5142
75.2341
72.0829
69.0565
66.1316
63.2803
60.4772
57.7016
54.9381
52.1757
49.407
46.627
43.832
41.0192
38.1862
35.3304
32.4492
29.5397
26.599
23.6239
20.6115
17.5597
14.4671
11.334
9.21977
7.59844
5.94545
4.26632
2.56776
0.85726
99.6251
98.8754
98.1262
97.3777
96.63
95.8836
95.1384
94.3947
93.6525
92.9119
92.1728
91.4352
90.699
89.9641
89.2302
88.4971
87.7646
87.0326
86.3009
85.5697
84.8399
84.1134
83.3943
82.6897
82.0107
81.3699
80.7771
80.2396
79.7645
79.3598
78.7665
75.5875
72.5118
69.5359
66.6414
63.8047
61.0033
58.2191
55.4387
52.6534
49.8575
47.0478
44.2218
41.3778
38.514
35.6284
32.7185
29.7816
26.8146
23.8142
20.7773
17.7012
14.5844
11.4268
9.29581
7.66142
5.99488
4.30184
2.58915
0.864403
99.626
98.8781
98.1307
97.3838
96.6379
95.893
95.1494
94.4072
93.6665
92.9274
92.1898
91.4538
90.7193
89.9862
89.2545
88.5241
87.795
87.0672
86.341
85.6171
84.8969
84.1828
83.4793
82.7931
82.1337
81.5114
80.9357
80.4142
79.9545
79.5636
78.9886
75.9036
72.9047
69.986
67.1303
64.3162
61.5232
58.7352
55.9412
53.1349
50.3131
47.4744
44.618
41.7435
38.8497
35.9351
32.9976
30.0344
27.0423
24.0177
20.9572
17.8574
14.7164
11.5335
9.38487
7.73597
6.05384
4.34443
2.61488
0.873007
99.6268
98.8807
98.1349
97.3897
96.6453
95.9021
95.16
94.4193
93.68
92.9423
92.2062
91.4718
90.739
90.0079
89.2784
88.5507
87.8249
87.1012
86.3803
85.6632
84.9516
84.2484
83.5581
82.8869
82.2433
81.6362
81.0747
80.5666
80.1197
79.7406
79.1828
76.1887
73.2688
70.4134
67.6043
64.8202
62.0414
59.2534
56.4481
53.622
50.7747
47.9073
45.0209
42.1161
39.1928
36.2501
33.2859
30.2975
27.2816
24.2342
21.1511
18.0285
14.8634
11.6547
9.48741
7.82247
6.12262
4.39428
2.64505
0.883103
99.6277
98.8831
98.1389
97.3952
96.6524
95.9106
95.17
94.4307
93.6929
92.9567
92.2221
91.4892
90.7582
90.029
89.3017
88.5766
87.854
87.1343
86.4183
85.7073
85.0034
84.3094
83.6299
82.9709
82.3396
81.7446
81.1944
80.6971
80.2605
79.8915
79.3506
76.4471
73.6097
70.8241
68.0694
65.3223
62.5628
59.778
56.9625
54.1167
51.2436
48.3471
45.4303
42.4954
39.543
36.5728
33.5829
30.5706
27.5323
24.4635
21.3593
18.2148
15.0261
11.7911
9.60415
7.92155
6.20166
4.45166
2.67979
0.894731
99.6284
98.8853
98.1426
97.4005
96.6591
95.9188
95.1796
94.4417
93.7053
92.9705
92.2373
91.506
90.7766
90.0493
89.3242
88.6017
87.882
87.166
86.4544
85.7489
85.0515
84.3652
83.6945
83.0448
82.423
81.837
81.295
80.8056
80.3771
80.0166
79.4925
76.6817
73.9318
71.2237
68.5317
65.8288
63.0933
60.3135
57.4878
54.6212
51.7209
48.7941
45.8463
42.8809
39.8997
36.9025
33.8879
30.8531
27.794
24.7056
21.582
18.4171
15.2055
11.9438
9.73617
8.03404
6.29154
4.5169
2.71928
0.907944
99.6291
98.8875
98.1462
97.4055
96.6655
95.9265
95.1887
94.4521
93.7171
92.9836
92.2519
91.5221
90.7944
90.0688
89.3458
88.6256
87.9088
87.196
86.4884
85.7875
85.0955
84.4155
83.7514
83.1086
82.4934
81.9134
81.3767
80.8923
80.4692
80.1157
79.6088
76.8944
74.239
71.6176
68.9979
66.347
63.6398
60.8656
58.0279
55.1378
52.2078
49.2487
46.2686
43.2722
40.262
37.2385
34.2003
31.1443
28.0662
24.9603
21.8196
18.6363
15.4029
12.1143
9.88491
8.16108
6.39298
4.59043
2.76371
0.922794
99.6298
98.8895
98.1496
97.4102
96.6715
95.9338
95.1973
94.462
93.7283
92.9962
92.2658
91.5375
90.8113
90.0875
89.3664
88.6484
87.9341
87.2242
86.52
85.823
85.1353
84.4599
83.8007
83.1625
82.5513
81.9742
81.4396
80.9568
80.5362
80.1879
79.6987
77.0859
74.5339
72.0108
69.4753
66.8855
64.2103
61.4405
58.5869
55.6687
52.7051
49.711
46.6967
43.6684
40.6292
37.5799
34.519
31.4435
28.3485
25.2276
22.0725
18.8734
15.6202
12.3049
10.0523
8.30405
6.50683
4.67264
2.81325
0.939326
99.6304
98.8914
98.1527
97.4146
96.6772
95.9407
95.2054
94.4714
93.7389
93.008
92.279
91.552
90.8273
90.1051
89.3858
88.6698
87.9577
87.2504
86.549
85.8551
85.1707
84.4986
83.8424
83.2066
82.5968
82.0198
81.4838
80.999
80.5772
80.2316
79.7604
77.2554
74.8184
72.4085
69.9723
67.4547
64.8149
62.0457
59.1691
56.216
53.2134
50.1805
47.1298
44.0685
41.0001
37.9254
34.843
31.7496
28.6401
25.5072
22.3413
19.1301
15.8598
12.5184
10.2408
8.46465
6.63399
4.76394
2.86801
0.95756
99.631
98.8932
98.1557
97.4188
96.6825
95.9472
95.2131
94.4802
93.7489
93.0192
92.2915
91.5658
90.8425
90.1218
89.4041
88.6898
87.9797
87.2745
86.5753
85.8837
85.2016
84.5315
83.8768
83.2414
82.6306
82.0506
81.5097
81.0184
80.5907
80.2441
79.7911
77.4006
75.0931
72.8156
70.4985
68.0679
65.4662
62.6894
59.7788
56.7812
53.7326
50.6565
47.5667
44.4712
41.3732
38.2737
35.1709
32.0616
28.9401
25.7987
22.6263
19.408
16.1251
12.7588
10.4538
8.64488
6.77533
4.86455
2.92801
0.977475
99.6316
98.8949
98.1585
97.4227
96.6875
95.9533
95.2203
94.4885
93.7583
93.0298
92.3032
91.5787
90.8567
90.1373
89.4211
88.7084
87.9999
87.2964
86.5989
85.9089
85.2282
84.559
83.9041
83.2674
82.6532
82.0674
81.5177
81.0149
80.5751
80.2216
79.7856
77.5158
75.3571
73.237
71.0656
68.7428
66.1804
63.3814
60.4198
57.3648
54.2618
51.1373
48.0058
44.8747
41.747
38.6231
35.5012
32.3779
29.2473
26.1014
22.9279
19.7091
16.4204
13.0322
10.6957
8.84693
6.9315
4.97445
2.99303
0.998981
99.6321
98.8965
98.1611
97.4263
96.6922
95.959
95.227
94.4963
93.7671
93.0396
92.3141
91.5908
90.8699
90.1518
89.4368
88.7254
88.0183
87.3161
86.6199
85.9308
85.2506
84.5812
83.925
83.2852
82.6656
82.0711
81.5088
80.9888
80.5285
80.158
79.7338
77.5909
75.6072
73.6769
71.6872
69.5039
66.9799
64.1319
61.0944
57.9656
54.7987
51.6206
48.4447
45.2769
42.1194
38.9718
35.8321
32.6967
29.5601
26.4139
23.2457
20.0355
16.7514
13.3474
10.9723
9.07298
7.10266
5.09311
3.06261
1.02189
99.6326
98.8979
98.1635
97.4297
96.6965
95.9643
95.2332
94.5035
93.7753
93.0488
92.3243
91.602
90.8821
90.1651
89.4512
88.741
88.0349
87.3336
86.6382
85.9496
85.2692
84.5986
83.94
83.2958
82.6689
82.0634
81.4846
80.9412
80.4495
80.0452
79.6136
77.6088
75.8381
74.1381
72.3784
70.3877
67.8959
64.9506
61.802
58.58
55.3395
52.1032
48.8807
45.6755
42.4881
39.3176
36.1614
33.016
29.8763
26.7345
23.5787
20.3884
17.1257
13.7198
11.2913
9.3246
7.28796
5.21931
3.13588
1.04591
99.633
98.8992
98.1657
97.4328
96.7005
95.9692
95.239
94.5101
93.7828
93.0572
92.3336
91.6123
90.8934
90.1773
89.4643
88.755
88.0497
87.3491
86.654
85.9654
85.2842
84.6118
83.9498
83.3
82.6646
82.046
81.4476
80.8749
80.3391
79.8721
79.3605
77.5424
76.0435
74.6208
73.1529
71.4519
68.9752
65.8426
62.536
59.2012
55.8789
52.5809
49.3105
46.0676
42.8509
39.6583
36.4869
33.3334
30.1932
27.06
23.9241
20.7674
17.5515
14.1775
11.6627
9.6014
7.48477
5.35084
3.21149
1.0706
99.6335
98.9005
98.1678
97.4356
96.7042
95.9736
95.2443
94.5162
93.7897
93.065
92.3422
91.6217
90.9036
90.1883
89.4762
88.7675
88.0628
87.3626
86.6676
85.9784
85.296
84.6212
83.9553
83.2992
82.6542
82.0213
81.4015
80.7954
80.2039
79.6324
78.7487
77.3611
76.2216
75.1197
74.0113
72.7953
70.2907
66.7971
63.2801
59.8178
56.4094
53.0487
49.7303
46.4503
43.205
39.9912
36.8059
33.6459
30.5075
27.3866
24.2769
21.1678
18.0342
14.7785
12.0971
9.89813
7.68781
5.48431
3.28766
1.09539
99.6338
98.9016
98.1696
97.4382
96.7075
95.9777
95.2491
94.5217
93.796
93.072
92.35
91.6301
90.9128
90.1982
89.4867
88.7786
88.0744
87.3743
86.679
85.9891
85.305
84.6275
83.9571
83.2943
82.6394
81.9919
81.3504
80.7107
80.0614
79.3618
78.4102
77.3119
76.2515
75.2109
74.1744
73.1239
71.405
67.4392
63.763
60.216
56.7517
53.3503
50.001
46.6971
43.4335
40.2064
37.0126
33.849
30.713
27.6016
24.512
21.4406
18.3854
15.363
12.5992
10.199
7.8884
5.61532
3.36226
1.11966
99.6342
98.9026
98.1713
97.4405
96.7105
95.9814
95.2534
94.5267
93.8016
93.0783
92.3569
91.6378
90.9211
90.2071
89.4961
88.7884
88.0843
87.3843
86.6886
85.9976
85.3117
84.6312
83.9563
83.2867
82.6219
81.9603
81.2986
80.6296
79.937
79.1819
78.2769
77.2713
76.2607
75.2596
74.2691
73.2977
71.8121
67.8164
64.0787
60.4849
56.9858
53.5578
50.1877
46.8676
43.5917
40.3558
37.1566
33.9914
30.8581
27.7551
24.6817
21.6394
18.6369
15.7084
12.9703
10.4675
8.07549
5.73913
3.4331
1.14274
99.6345
98.9035
98.1728
97.4426
96.7131
95.9846
95.2572
94.5311
93.8066
93.0839
92.3631
91.6445
90.9283
90.2148
89.5042
88.7968
88.0929
87.3927
86.6964
86.0043
85.3165
84.633
83.9535
83.2773
82.6033
81.9288
81.2494
80.5568
79.8352
79.0559
78.1798
77.2323
76.2667
75.3044
74.357
73.4427
72.0532
68.1007
64.3425
60.7197
57.1943
53.7443
50.3565
47.0222
43.7355
40.492
37.2884
34.1224
30.9924
27.8979
24.8402
21.8239
18.8617
15.9853
13.2568
10.6962
8.24254
5.85202
3.49829
1.16405
99.6347
98.9042
98.1741
97.4444
96.7155
95.9874
95.2606
94.535
93.811
93.0887
92.3684
91.6503
90.9346
90.2215
89.5112
88.804
88.1001
87.3996
86.7027
86.0094
85.3197
84.6332
83.9494
83.2672
82.5848
81.899
81.205
80.4945
79.7542
78.9649
78.1085
77.1999
76.2714
75.3438
74.433
73.5586
72.2167
68.3151
64.5576
60.9194
57.3757
53.9085
50.506
47.1597
43.8638
40.6138
37.4067
34.2404
31.1138
28.0275
24.9838
21.9889
19.0558
16.2088
13.4827
10.8864
8.38687
5.95167
3.55647
1.18317
99.6349
98.9049
98.1752
97.4459
96.7174
95.9899
95.2634
94.5383
93.8147
93.0929
92.373
91.6553
90.9399
90.2272
89.5171
88.8101
88.1061
87.4053
86.7077
86.0133
85.3217
84.6325
83.9448
83.2572
82.5675
81.8723
81.1666
80.4429
79.6908
78.8979
78.0559
77.1747
76.2757
75.3773
74.4959
73.6496
72.3355
68.4775
64.7298
61.0852
57.5294
54.0495
50.6352
47.2791
43.9755
40.7202
37.5104
34.3441
31.2208
28.1417
25.1098
22.1316
19.2187
16.3889
13.662
11.0417
8.50807
6.03691
3.60677
1.19977
99.6351
98.9054
98.1761
97.4472
96.7191
95.9919
95.2658
94.5411
93.8179
93.0964
92.3768
91.6594
90.9444
90.2318
89.522
88.815
88.1109
87.4098
86.7116
86.0161
85.3229
84.6313
83.9402
83.248
82.5521
81.8493
81.1346
80.4015
79.6422
78.8486
78.0173
77.1559
76.2798
75.4047
74.5461
73.7199
72.4239
68.6004
64.8648
61.219
57.6559
54.1667
50.7435
47.3796
44.0698
40.8103
37.5983
34.4322
31.312
28.2389
25.2165
22.2509
19.3518
16.532
13.803
11.1657
8.60679
6.10738
3.64874
1.21368
99.6353
98.9059
98.1768
97.4483
96.7204
95.9935
95.2677
94.5433
93.8203
93.0991
92.3799
91.6627
90.9479
90.2355
89.5258
88.8188
88.1147
87.4133
86.7145
86.0181
85.3235
84.6299
83.936
83.24
82.5393
81.8306
81.1092
80.3696
79.6059
78.8129
77.9897
77.1425
76.2834
75.4261
74.5846
73.7726
72.4891
68.6915
64.9675
61.323
57.7558
54.2603
50.8304
47.4606
44.1461
40.8833
37.6696
34.5039
31.3861
28.3179
25.3027
22.3462
19.4564
16.6423
13.9109
11.2616
8.68408
6.16318
3.68222
1.22481
99.6354
98.9062
98.1774
97.449
96.7214
95.9947
95.2692
94.5449
93.8222
93.1012
92.3821
91.6652
90.9505
90.2383
89.5287
88.8217
88.1174
87.4158
86.7166
86.0195
85.3238
84.6286
83.9326
83.2337
82.5295
81.8164
81.0903
80.3464
79.5801
78.788
77.9706
77.1334
76.2864
75.4419
74.6125
73.8102
72.5352
68.7562
65.0415
61.3992
57.8298
54.3302
50.8958
47.5217
44.2037
40.9385
37.7238
34.5583
31.4424
28.3778
25.3678
22.4175
19.5336
16.7228
13.9893
11.3315
8.741
6.20461
3.70721
1.23315
99.6354
98.9064
98.1777
97.4496
96.7221
95.9955
95.2701
94.546
93.8234
93.1026
92.3837
91.6668
90.9523
90.2401
89.5305
88.8236
88.1192
87.4174
86.7179
86.0203
85.3239
84.6276
83.9302
83.2294
82.5227
81.8069
81.0778
80.3313
79.5636
78.7724
77.9586
77.1277
76.2886
75.4523
74.6306
73.8344
72.5648
68.7977
65.0895
61.4491
57.8787
54.3767
50.9394
47.5625
44.2423
40.9756
37.7601
34.5949
31.4803
28.418
25.4113
22.465
19.5846
16.7755
14.0405
11.3773
8.77844
6.232
3.72379
1.23869
99.6355
98.9066
98.1779
97.4498
96.7224
95.9959
95.2706
94.5466
93.8241
93.1033
92.3844
91.6676
90.9531
90.241
89.5315
88.8245
88.1201
87.4182
86.7185
86.0207
85.3239
84.6271
83.9289
83.2272
82.5194
81.8021
81.0716
80.3239
79.5555
78.7648
77.9529
77.125
76.2897
75.4575
74.6395
73.8463
72.5792
68.818
65.1131
61.4738
57.9031
54.3999
50.9612
47.583
44.2617
40.9942
37.7784
34.6133
31.4993
28.4382
25.4331
22.4886
19.6099
16.8016
14.0657
11.3999
8.797
6.24561
3.73206
1.24146
)
;

boundaryField
{
    inlet
    {
        type            fixedValue;
        value           uniform 100;
    }
    outlet
    {
        type            fixedValue;
        value           uniform 0;
    }
    frontAndback
    {
        type            empty;
    }
}


// ************************************************************************* //
