/*--------------------------------*- C++ -*----------------------------------*\
  =========                 |
  \\      /  F ield         | OpenFOAM: The Open Source CFD Toolbox
   \\    /   O peration     | Website:  https://openfoam.org
    \\  /    A nd           | Version:  7
     \\/     M anipulation  |
\*---------------------------------------------------------------------------*/
FoamFile
{
    version     2.0;
    format      ascii;
    class       volVectorField;
    location    "1";
    object      U;
}
// * * * * * * * * * * * * * * * * * * * * * * * * * * * * * * * * * * * * * //

dimensions      [0 1 -1 0 0 0 0];

internalField   nonuniform List<vector> 
3600
(
(7.1037e-08 -0.0999999 -0)
(-1.15875e-08 -0.0999998 -0)
(-5.61323e-08 -0.1 -0)
(-2.10673e-08 -0.1 -0)
(3.58173e-08 -0.1 -0)
(1.57181e-07 -0.0999999 -0)
(2.58141e-07 -0.0999995 -0)
(4.02656e-07 -0.0999989 -0)
(3.98681e-07 -0.0999981 -0)
(3.04141e-07 -0.0999977 -0)
(1.15898e-07 -0.0999972 -0)
(5.46854e-08 -0.0999973 -0)
(1.54919e-07 -0.099997 -0)
(1.3531e-07 -0.0999968 -0)
(1.18133e-07 -0.0999966 -0)
(1.67512e-07 -0.0999964 -0)
(3.2588e-07 -0.0999959 -0)
(4.52459e-07 -0.0999952 -0)
(4.20576e-07 -0.0999945 -0)
(2.42808e-07 -0.0999939 -0)
(1.60588e-08 -0.0999937 -0)
(-1.05643e-07 -0.0999938 -0)
(-8.52712e-08 -0.099994 -0)
(-4.18351e-08 -0.0999941 -0)
(-1.8506e-08 -0.0999942 -0)
(-3.56701e-08 -0.0999942 -0)
(-1.00227e-07 -0.0999943 -0)
(-2.09191e-07 -0.0999945 -0)
(-2.78063e-07 -0.099995 -0)
(-2.9547e-07 -0.0999954 -0)
(-3.25778e-07 -0.099996 -0)
(-3.72266e-07 -0.0999966 -0)
(-4.37615e-07 -0.0999973 -0)
(-5.11089e-07 -0.099998 -0)
(-4.83997e-07 -0.0999989 -0)
(-3.95816e-07 -0.0999996 -0)
(-4.22891e-07 -0.1 -0)
(-3.95581e-07 -0.100001 -0)
(-2.412e-07 -0.100002 -0)
(-1.68076e-07 -0.100002 -0)
(-1.50788e-07 -0.100002 -0)
(-8.59921e-08 -0.100002 -0)
(-6.15689e-08 -0.100002 -0)
(-6.50347e-08 -0.100003 -0)
(-4.51717e-08 -0.100003 -0)
(-6.03624e-08 -0.100003 -0)
(-1.16032e-07 -0.100003 -0)
(-1.13782e-07 -0.100003 -0)
(-1.19018e-07 -0.100003 -0)
(-1.99299e-07 -0.100003 -0)
(-2.46474e-07 -0.100004 -0)
(-2.00241e-07 -0.100004 -0)
(-1.60041e-07 -0.100005 -0)
(-1.78334e-07 -0.100005 -0)
(-1.58639e-07 -0.100005 -0)
(-7.72779e-08 -0.100005 -0)
(-4.9579e-08 -0.100005 -0)
(-8.41911e-08 -0.100006 -0)
(-8.67819e-08 -0.100006 -0)
(-3.55464e-08 -0.100006 -0)
(6.40232e-08 3.99845e-09 -0)
(-3.3023e-08 -5.58383e-08 -0)
(-6.44618e-08 3.85122e-08 -0)
(-3.53927e-08 -8.55873e-08 -0)
(5.06272e-08 -7.13918e-08 -0)
(1.78978e-07 -2.62327e-08 -0)
(3.36514e-07 1.15939e-07 -0)
(4.42561e-07 9.74852e-08 -0)
(3.34551e-07 7.80064e-08 -0)
(2.29839e-07 -7.83839e-09 -0)
(1.19898e-07 -1.49527e-08 -0)
(8.08878e-08 2.58215e-08 -0)
(1.52223e-07 -6.82772e-09 -0)
(1.06387e-07 -4.9932e-08 -0)
(1.31101e-07 -6.12867e-08 -0)
(2.28323e-07 7.00237e-09 -0)
(3.55147e-07 8.05618e-08 -0)
(4.20286e-07 1.09952e-07 -0)
(3.70795e-07 5.66728e-08 -0)
(2.27055e-07 -5.22039e-08 -0)
(3.04682e-08 -8.90225e-08 -0)
(-9.39179e-08 -4.06642e-08 -0)
(-7.25234e-08 -1.59968e-08 -0)
(-3.42315e-08 1.23151e-09 -0)
(-3.54076e-08 -2.85457e-11 -0)
(-6.05529e-08 -2.01585e-08 -0)
(-9.4601e-08 -5.587e-08 -0)
(-1.8446e-07 -2.77754e-08 -0)
(-2.6445e-07 -2.70555e-08 -0)
(-3.00906e-07 -5.69374e-10 -0)
(-3.52383e-07 1.69623e-08 -0)
(-3.89608e-07 -1.02192e-08 -0)
(-4.0586e-07 -6.88615e-08 -0)
(-4.83108e-07 -1.61571e-08 -0)
(-5.30011e-07 4.12746e-08 -0)
(-4.25281e-07 -3.48529e-08 -0)
(-3.79181e-07 -7.82457e-08 -0)
(-3.84484e-07 2.24233e-08 -0)
(-2.65383e-07 7.18521e-09 -0)
(-1.53519e-07 -2.66904e-08 -0)
(-1.40909e-07 2.14293e-08 -0)
(-9.7664e-08 2.77858e-08 -0)
(-5.13916e-08 -1.14799e-08 -0)
(-5.41088e-08 4.97877e-09 -0)
(-6.37913e-08 4.57674e-08 -0)
(-6.20165e-08 1.84732e-08 -0)
(-9.00095e-08 -8.81522e-09 -0)
(-1.17152e-07 2.91186e-08 -0)
(-1.46643e-07 4.8873e-08 -0)
(-1.95922e-07 6.95754e-09 -0)
(-2.25053e-07 -2.80434e-09 -0)
(-2.09457e-07 3.04185e-08 -0)
(-1.82126e-07 2.33294e-08 -0)
(-1.64394e-07 1.15889e-08 -0)
(-1.24804e-07 4.81681e-08 -0)
(-8.39018e-08 4.90218e-08 -0)
(-8.44123e-08 7.93773e-09 -0)
(-9.32442e-08 1.7969e-08 -0)
(-6.17011e-08 2.63667e-08 -0)
(-1.5886e-08 6.20334e-08 -0)
(3.9933e-08 2.24866e-08 -0)
(9.12071e-09 1.09163e-08 -0)
(-7.39817e-08 4.85418e-09 -0)
(-8.70096e-08 2.46469e-08 -0)
(7.143e-08 -3.24881e-08 -0)
(2.69579e-07 3.3019e-08 -0)
(3.32372e-07 1.18408e-07 -0)
(3.79897e-07 -6.2151e-09 -0)
(3.35487e-07 -2.06265e-08 -0)
(2.48365e-07 1.02533e-08 -0)
(1.36094e-07 9.41756e-09 -0)
(5.95604e-08 5.47125e-08 -0)
(1.09467e-07 5.08412e-09 -0)
(1.02635e-07 -2.15368e-08 -0)
(1.52293e-07 -4.88864e-09 -0)
(2.52621e-07 2.20463e-08 -0)
(3.8765e-07 4.50381e-08 -0)
(4.38126e-07 7.59158e-08 -0)
(3.23282e-07 6.36477e-08 -0)
(1.55391e-07 -4.65283e-08 -0)
(2.29826e-08 -1.07932e-07 -0)
(-6.18277e-08 -5.36976e-08 -0)
(-6.01337e-08 -4.74462e-08 -0)
(-3.22542e-08 -8.18784e-08 -0)
(-3.134e-08 -4.62502e-08 -0)
(-6.9175e-08 3.0602e-09 -0)
(-1.04797e-07 -5.24973e-08 -0)
(-1.91902e-07 -8.34676e-08 -0)
(-2.61739e-07 -8.91455e-08 -0)
(-2.69059e-07 -3.72195e-08 -0)
(-3.31568e-07 1.87728e-08 -0)
(-4.2376e-07 9.99962e-09 -0)
(-4.41178e-07 -6.90895e-08 -0)
(-4.45007e-07 -9.71186e-08 -0)
(-4.95214e-07 1.5737e-08 -0)
(-4.67528e-07 5.37954e-08 -0)
(-3.88525e-07 -8.46393e-08 -0)
(-3.44322e-07 -5.25215e-08 -0)
(-2.70668e-07 5.69006e-08 -0)
(-1.5953e-07 3.4921e-08 -0)
(-1.18102e-07 -1.0751e-08 -0)
(-1.05738e-07 4.25312e-09 -0)
(-7.52532e-08 3.73555e-08 -0)
(-3.06863e-08 3.26139e-08 -0)
(-3.70751e-08 2.67923e-08 -0)
(-9.3112e-08 2.45194e-08 -0)
(-1.09645e-07 2.31386e-08 -0)
(-7.91687e-08 4.47013e-08 -0)
(-1.32315e-07 6.34172e-08 -0)
(-2.30305e-07 3.08075e-08 -0)
(-2.32398e-07 5.37426e-09 -0)
(-1.84561e-07 4.01983e-08 -0)
(-1.71339e-07 7.03261e-08 -0)
(-1.63431e-07 7.26655e-08 -0)
(-1.36179e-07 5.83307e-08 -0)
(-1.01416e-07 2.57213e-08 -0)
(-6.82107e-08 5.3598e-08 -0)
(-7.31337e-08 8.48251e-08 -0)
(-6.03433e-08 9.17942e-08 -0)
(-1.41464e-08 1.02682e-07 -0)
(8.40649e-08 3.6557e-08 -0)
(-4.36025e-08 1.83565e-08 -0)
(-5.62235e-08 -1.70975e-08 -0)
(-5.77981e-08 6.14662e-08 -0)
(5.56504e-08 8.41915e-08 -0)
(2.69516e-07 5.10261e-08 -0)
(3.12973e-07 7.21211e-08 -0)
(3.5914e-07 1.57788e-08 -0)
(3.44432e-07 -2.75272e-08 -0)
(2.47865e-07 3.92896e-10 -0)
(1.46574e-07 -2.12785e-08 -0)
(7.82878e-08 2.85626e-09 -0)
(1.06474e-07 -4.8172e-09 -0)
(1.00404e-07 1.69263e-08 -0)
(1.57251e-07 5.70108e-08 -0)
(2.58279e-07 7.98718e-08 -0)
(3.87469e-07 5.79111e-08 -0)
(4.31452e-07 6.32274e-09 -0)
(2.97329e-07 -5.76706e-09 -0)
(1.24107e-07 -3.0772e-08 -0)
(2.61666e-08 -7.60124e-08 -0)
(-5.76261e-08 -7.24267e-08 -0)
(-8.94318e-08 -7.95675e-08 -0)
(-3.35139e-08 -1.14978e-07 -0)
(1.55556e-08 -8.32724e-08 -0)
(-6.43011e-08 -1.52874e-08 -0)
(-1.46518e-07 -8.20195e-08 -0)
(-2.06449e-07 -1.20366e-07 -0)
(-2.36701e-07 -9.32345e-08 -0)
(-2.36155e-07 -3.13274e-08 -0)
(-3.24052e-07 -1.81797e-08 -0)
(-4.42325e-07 -5.64043e-08 -0)
(-4.70131e-07 -4.17968e-08 -0)
(-4.32212e-07 -4.42109e-08 -0)
(-4.39462e-07 -5.14333e-08 -0)
(-4.85507e-07 5.82166e-09 -0)
(-4.42971e-07 -2.23386e-08 -0)
(-2.9956e-07 -4.1423e-08 -0)
(-2.12917e-07 3.23274e-08 -0)
(-1.9411e-07 4.76792e-08 -0)
(-1.5931e-07 -5.34334e-11 -0)
(-6.88001e-08 -3.08769e-09 -0)
(-3.43752e-08 5.9563e-08 -0)
(-6.04467e-08 7.2645e-08 -0)
(-6.8648e-08 1.01625e-08 -0)
(-6.42087e-08 -1.67295e-09 -0)
(-7.79004e-08 8.67839e-08 -0)
(-9.29852e-08 1.1355e-07 -0)
(-1.54979e-07 3.1707e-08 -0)
(-2.30748e-07 -5.04071e-09 -0)
(-2.19418e-07 5.05763e-08 -0)
(-1.70486e-07 9.19137e-08 -0)
(-1.62645e-07 8.12612e-08 -0)
(-1.71591e-07 7.34288e-08 -0)
(-1.52971e-07 6.35968e-08 -0)
(-8.67414e-08 6.70689e-08 -0)
(-4.895e-08 8.85196e-08 -0)
(-7.03265e-08 1.1146e-07 -0)
(-5.09868e-08 1.39414e-07 -0)
(-9.35314e-09 1.28092e-07 -0)
(7.28811e-08 -5.02726e-08 -0)
(-2.3072e-08 1.38273e-08 -0)
(-4.81158e-08 1.529e-08 -0)
(-2.62362e-08 5.15536e-08 -0)
(6.5166e-08 1.64842e-07 -0)
(2.62337e-07 9.25372e-08 -0)
(3.11223e-07 9.53048e-08 -0)
(3.20108e-07 7.18166e-08 -0)
(3.26255e-07 3.83146e-09 -0)
(2.52114e-07 4.14212e-08 -0)
(1.37572e-07 6.07189e-09 -0)
(6.94372e-08 -3.1992e-08 -0)
(1.17909e-07 -3.27618e-08 -0)
(1.39732e-07 3.80618e-08 -0)
(1.9006e-07 9.46687e-08 -0)
(2.53161e-07 9.65185e-08 -0)
(3.4352e-07 6.34632e-08 -0)
(3.99919e-07 -8.80102e-09 -0)
(3.01026e-07 -3.07703e-08 -0)
(1.13244e-07 -2.53747e-08 -0)
(-2.01024e-09 -8.58223e-08 -0)
(-6.39608e-08 -1.33042e-07 -0)
(-8.56647e-08 -9.44273e-08 -0)
(-3.44771e-08 -6.73437e-08 -0)
(2.84745e-08 -1.09555e-07 -0)
(-6.84232e-08 -1.11806e-07 -0)
(-1.67844e-07 -1.25013e-07 -0)
(-1.98631e-07 -8.20772e-08 -0)
(-2.08316e-07 -8.20631e-08 -0)
(-2.24026e-07 -9.86596e-08 -0)
(-3.46614e-07 -4.1358e-08 -0)
(-4.3793e-07 -4.95243e-08 -0)
(-4.33862e-07 -5.91323e-08 -0)
(-4.50789e-07 -3.06078e-08 -0)
(-4.65195e-07 -5.6056e-08 -0)
(-4.50072e-07 -5.33122e-08 -0)
(-4.16872e-07 9.44658e-09 -0)
(-3.11522e-07 1.62207e-08 -0)
(-2.17207e-07 8.9777e-10 -0)
(-1.78958e-07 5.59315e-10 -0)
(-1.48562e-07 3.71888e-08 -0)
(-6.99677e-08 6.82361e-08 -0)
(-2.98135e-08 4.28243e-08 -0)
(-6.03266e-08 1.56831e-08 -0)
(-8.16658e-08 4.31852e-08 -0)
(-4.71391e-08 7.52626e-08 -0)
(-4.05116e-08 9.38796e-08 -0)
(-1.12215e-07 7.80598e-08 -0)
(-2.03469e-07 3.62531e-08 -0)
(-2.18984e-07 3.5796e-08 -0)
(-1.74225e-07 6.96718e-08 -0)
(-1.6615e-07 9.22231e-08 -0)
(-1.8243e-07 1.10679e-07 -0)
(-1.7403e-07 1.04499e-07 -0)
(-1.39995e-07 6.99609e-08 -0)
(-8.64625e-08 7.99048e-08 -0)
(-4.15758e-08 1.1277e-07 -0)
(-4.25971e-08 1.53485e-07 -0)
(-5.03646e-08 1.50139e-07 -0)
(-2.09399e-08 1.11228e-07 -0)
(6.21977e-08 -1.88146e-08 -0)
(-4.26495e-09 3.18524e-08 -0)
(-3.35877e-08 -9.48936e-11 -0)
(3.19329e-08 4.88109e-08 -0)
(8.02406e-08 1.44664e-07 -0)
(2.27793e-07 8.1152e-08 -0)
(3.00541e-07 5.12777e-08 -0)
(3.04256e-07 7.15368e-08 -0)
(3.26194e-07 3.21467e-08 -0)
(2.4921e-07 3.75967e-08 -0)
(1.02526e-07 -1.02436e-08 -0)
(5.49875e-08 -1.81989e-08 -0)
(1.48506e-07 2.24446e-08 -0)
(1.76862e-07 8.31439e-08 -0)
(1.92325e-07 9.49619e-08 -0)
(2.39556e-07 6.16244e-08 -0)
(3.24277e-07 6.17547e-08 -0)
(3.74912e-07 3.05273e-08 -0)
(2.87384e-07 -3.94989e-08 -0)
(9.1076e-08 -8.06218e-08 -0)
(-3.84341e-08 -9.78282e-08 -0)
(-6.27891e-08 -1.16868e-07 -0)
(-5.00126e-08 -1.15137e-07 -0)
(-4.25905e-08 -9.65942e-08 -0)
(-1.11219e-08 -1.21373e-07 -0)
(-7.35758e-08 -1.25356e-07 -0)
(-1.2868e-07 -1.70495e-07 -0)
(-1.80679e-07 -1.10729e-07 -0)
(-2.46651e-07 -5.05768e-08 -0)
(-2.11732e-07 -1.32401e-07 -0)
(-2.94571e-07 -8.72587e-08 -0)
(-4.5299e-07 -1.09374e-08 -0)
(-4.58781e-07 -6.81637e-08 -0)
(-4.30366e-07 -9.84137e-08 -0)
(-4.53085e-07 -2.81733e-08 -0)
(-4.46205e-07 -9.97687e-09 -0)
(-4.01251e-07 -1.13863e-08 -0)
(-3.0469e-07 -2.03325e-08 -0)
(-2.22314e-07 1.47447e-08 -0)
(-1.72335e-07 5.34706e-08 -0)
(-1.18704e-07 4.36081e-08 -0)
(-6.54188e-08 3.63608e-08 -0)
(-6.5907e-08 5.28258e-08 -0)
(-6.02302e-08 4.81967e-08 -0)
(-3.29003e-08 4.9582e-08 -0)
(-3.37921e-08 8.08258e-08 -0)
(-7.6222e-08 1.10073e-07 -0)
(-1.27561e-07 8.02132e-08 -0)
(-1.80337e-07 3.13923e-08 -0)
(-2.10697e-07 4.60396e-08 -0)
(-1.85562e-07 9.77525e-08 -0)
(-1.45882e-07 1.41432e-07 -0)
(-1.5528e-07 1.47107e-07 -0)
(-1.96022e-07 8.02188e-08 -0)
(-1.67727e-07 5.14886e-08 -0)
(-6.10562e-08 1.12093e-07 -0)
(-4.80206e-09 1.87672e-07 -0)
(-4.79052e-08 1.61344e-07 -0)
(-7.63409e-08 1.03997e-07 -0)
(-3.26995e-08 9.50849e-08 -0)
(8.07039e-08 8.82113e-09 -0)
(-1.18402e-08 1.37625e-08 -0)
(-3.79407e-08 7.00349e-08 -0)
(6.06192e-08 5.02476e-08 -0)
(8.45706e-08 9.17115e-08 -0)
(2.06305e-07 8.87212e-08 -0)
(3.05454e-07 6.05145e-08 -0)
(3.08629e-07 9.04112e-08 -0)
(3.05891e-07 2.61186e-08 -0)
(2.2668e-07 -3.04127e-08 -0)
(1.04094e-07 -4.63612e-08 -0)
(8.90501e-08 2.63555e-08 -0)
(1.78715e-07 6.38629e-08 -0)
(1.83242e-07 5.91156e-08 -0)
(1.77149e-07 9.53786e-08 -0)
(2.33237e-07 1.09704e-07 -0)
(3.24862e-07 6.79668e-08 -0)
(3.39167e-07 -5.13476e-09 -0)
(2.34336e-07 -5.21385e-08 -0)
(7.82463e-08 -7.86153e-08 -0)
(-2.37582e-08 -1.07814e-07 -0)
(-7.43461e-08 -1.2268e-07 -0)
(-7.35002e-08 -1.22378e-07 -0)
(-3.82189e-08 -1.24433e-07 -0)
(1.12175e-08 -1.51599e-07 -0)
(-9.78962e-08 -1.01442e-07 -0)
(-1.59067e-07 -1.71451e-07 -0)
(-1.2668e-07 -2.16598e-07 -0)
(-2.2132e-07 -4.77509e-08 -0)
(-2.46035e-07 -4.30152e-08 -0)
(-2.73736e-07 -1.39331e-07 -0)
(-4.26473e-07 -1.0201e-07 -0)
(-4.86348e-07 -4.00615e-08 -0)
(-4.26795e-07 -5.53327e-08 -0)
(-4.12132e-07 -4.1365e-08 -0)
(-4.39999e-07 -4.96353e-08 -0)
(-4.23085e-07 -1.59374e-08 -0)
(-2.95844e-07 2.3788e-08 -0)
(-1.72925e-07 2.28488e-08 -0)
(-1.6164e-07 3.11625e-08 -0)
(-1.58828e-07 6.74319e-08 -0)
(-6.44371e-08 6.33291e-08 -0)
(-2.2712e-08 3.83424e-08 -0)
(-6.22729e-08 4.44961e-08 -0)
(-6.20883e-08 8.07051e-08 -0)
(-1.08445e-08 1.10173e-07 -0)
(-4.08792e-08 1.10643e-07 -0)
(-1.59423e-07 6.10264e-08 -0)
(-2.23973e-07 2.3278e-08 -0)
(-1.79168e-07 7.74272e-08 -0)
(-1.1699e-07 1.56425e-07 -0)
(-1.36537e-07 1.64453e-07 -0)
(-2.19158e-07 9.66471e-08 -0)
(-2.31401e-07 4.61454e-08 -0)
(-1.2087e-07 1.05277e-07 -0)
(-4.75248e-09 1.91907e-07 -0)
(-1.20255e-08 1.94259e-07 -0)
(-9.28019e-08 1.19604e-07 -0)
(-9.012e-08 9.13974e-08 -0)
(-2.62873e-08 1.24684e-07 -0)
(7.57479e-08 1.24632e-08 -0)
(3.24633e-08 6.10505e-08 -0)
(-1.16966e-08 1.40926e-07 -0)
(4.49388e-08 7.31629e-08 -0)
(1.03325e-07 1.18425e-07 -0)
(2.09075e-07 1.67949e-07 -0)
(3.01555e-07 1.13401e-07 -0)
(2.83619e-07 8.3309e-08 -0)
(2.537e-07 2.7204e-08 -0)
(2.05722e-07 8.87478e-09 -0)
(1.36587e-07 -1.308e-08 -0)
(1.21122e-07 1.87697e-08 -0)
(1.68162e-07 6.17434e-08 -0)
(1.95771e-07 6.22319e-08 -0)
(2.22678e-07 9.32255e-08 -0)
(2.23109e-07 1.24815e-07 -0)
(2.55373e-07 7.79007e-08 -0)
(3.02848e-07 -3.27183e-08 -0)
(2.43296e-07 -6.51632e-08 -0)
(5.76706e-08 -4.23206e-08 -0)
(-6.48729e-08 -1.06578e-07 -0)
(-7.15274e-08 -1.89743e-07 -0)
(-5.10647e-08 -1.36039e-07 -0)
(-6.01231e-08 -4.65432e-08 -0)
(2.67294e-09 -1.76092e-07 -0)
(-8.54871e-08 -2.15668e-07 -0)
(-1.97774e-07 -1.39854e-07 -0)
(-1.06459e-07 -1.71809e-07 -0)
(-1.42501e-07 -1.05358e-07 -0)
(-2.6668e-07 -7.1747e-08 -0)
(-3.29968e-07 -1.37608e-07 -0)
(-3.93428e-07 -1.15145e-07 -0)
(-4.30775e-07 -4.44961e-08 -0)
(-4.31148e-07 -6.64059e-08 -0)
(-4.49666e-07 -5.48321e-08 -0)
(-4.30948e-07 -3.41373e-08 -0)
(-3.57197e-07 -2.41819e-08 -0)
(-2.81418e-07 1.80948e-08 -0)
(-2.17889e-07 5.33246e-08 -0)
(-1.45585e-07 4.27611e-08 -0)
(-9.94037e-08 6.98018e-08 -0)
(-8.28726e-08 8.25582e-08 -0)
(-7.72068e-08 3.54829e-08 -0)
(-3.48126e-08 3.87065e-08 -0)
(6.50583e-09 1.32613e-07 -0)
(-1.58296e-08 1.61177e-07 -0)
(-1.0571e-07 6.87062e-08 -0)
(-1.7998e-07 2.11185e-09 -0)
(-1.70497e-07 6.68458e-08 -0)
(-1.30809e-07 1.68285e-07 -0)
(-1.33346e-07 1.66083e-07 -0)
(-1.81749e-07 8.74913e-08 -0)
(-2.26265e-07 5.60816e-08 -0)
(-1.90843e-07 1.3252e-07 -0)
(-8.02701e-08 1.9587e-07 -0)
(-7.66748e-09 1.91655e-07 -0)
(-4.81838e-08 1.38375e-07 -0)
(-1.09622e-07 1.19066e-07 -0)
(-7.32931e-08 1.53699e-07 -0)
(-1.27276e-08 1.78266e-07 -0)
(1.24812e-07 6.30096e-09 -0)
(6.52377e-08 3.09594e-08 -0)
(-3.06732e-08 6.87528e-08 -0)
(4.71187e-08 1.07827e-07 -0)
(1.41442e-07 1.29126e-07 -0)
(2.0329e-07 1.50359e-07 -0)
(2.54671e-07 1.06804e-07 -0)
(2.56911e-07 6.6706e-08 -0)
(2.61231e-07 9.28847e-09 -0)
(2.0251e-07 3.69658e-08 -0)
(1.10031e-07 3.93069e-08 -0)
(1.33944e-07 1.39654e-08 -0)
(2.04792e-07 6.7858e-08 -0)
(2.02131e-07 1.33334e-07 -0)
(2.14699e-07 1.04632e-07 -0)
(2.24042e-07 3.23408e-08 -0)
(2.30342e-07 5.35977e-08 -0)
(2.53329e-07 5.81146e-08 -0)
(2.28575e-07 -4.93788e-08 -0)
(5.33977e-08 -1.33394e-07 -0)
(-1.12212e-07 -1.10429e-07 -0)
(-9.2023e-08 -1.08565e-07 -0)
(1.24199e-08 -1.61042e-07 -0)
(-6.22507e-08 -1.05229e-07 -0)
(-9.02573e-08 -1.59088e-07 -0)
(-7.61533e-08 -2.35813e-07 -0)
(-1.32752e-07 -1.48834e-07 -0)
(-1.05983e-07 -1.61783e-07 -0)
(-1.61283e-07 -1.52062e-07 -0)
(-2.65385e-07 -9.41571e-08 -0)
(-2.99774e-07 -1.28843e-07 -0)
(-3.70606e-07 -1.35675e-07 -0)
(-4.57104e-07 -6.56633e-08 -0)
(-4.32996e-07 -5.99337e-08 -0)
(-3.92771e-07 -7.07896e-08 -0)
(-4.21609e-07 -2.60719e-08 -0)
(-3.91746e-07 -1.36919e-08 -0)
(-2.4934e-07 -8.48089e-09 -0)
(-1.58126e-07 8.04758e-08 -0)
(-1.51754e-07 1.16397e-07 -0)
(-1.3495e-07 5.22588e-08 -0)
(-8.50285e-08 1.23178e-08 -0)
(-4.9023e-08 7.51548e-08 -0)
(-3.9951e-09 1.49672e-07 -0)
(1.13938e-08 1.45138e-07 -0)
(-4.91883e-08 7.5099e-08 -0)
(-1.36318e-07 3.40338e-08 -0)
(-1.6054e-07 7.68102e-08 -0)
(-1.2427e-07 1.39298e-07 -0)
(-1.19625e-07 1.4615e-07 -0)
(-1.65466e-07 1.1518e-07 -0)
(-2.02538e-07 9.23489e-08 -0)
(-1.92141e-07 1.14362e-07 -0)
(-1.47528e-07 1.78279e-07 -0)
(-8.53895e-08 1.88628e-07 -0)
(-3.92492e-08 1.54975e-07 -0)
(-5.55792e-08 1.39004e-07 -0)
(-8.36078e-08 1.83338e-07 -0)
(-5.45995e-08 2.23956e-07 -0)
(-1.15467e-08 2.05169e-07 -0)
(9.81041e-08 2.77015e-08 -0)
(6.99344e-08 -1.1903e-08 -0)
(3.44239e-08 5.97073e-08 -0)
(8.11627e-08 1.41098e-07 -0)
(1.28844e-07 1.39594e-07 -0)
(1.95682e-07 1.24233e-07 -0)
(2.51363e-07 1.00187e-07 -0)
(2.25109e-07 1.09884e-07 -0)
(2.35856e-07 1.62917e-08 -0)
(2.23733e-07 -4.126e-08 -0)
(1.22786e-07 2.09861e-08 -0)
(1.38253e-07 9.35884e-08 -0)
(2.39783e-07 1.04206e-07 -0)
(2.17836e-07 9.95483e-08 -0)
(1.62082e-07 1.17941e-07 -0)
(1.92489e-07 7.42243e-08 -0)
(2.70838e-07 2.16452e-08 -0)
(2.41062e-07 1.45373e-08 -0)
(1.28391e-07 -2.04735e-08 -0)
(2.10407e-08 -1.17808e-07 -0)
(-4.99752e-08 -1.39039e-07 -0)
(-1.01896e-07 -7.89286e-08 -0)
(-4.90629e-08 -1.47931e-07 -0)
(-5.89505e-08 -1.63669e-07 -0)
(-7.56775e-08 -1.5613e-07 -0)
(-7.93347e-08 -2.27688e-07 -0)
(-1.53356e-07 -1.72913e-07 -0)
(-1.08396e-07 -1.65464e-07 -0)
(-1.01926e-07 -1.7892e-07 -0)
(-2.52748e-07 -1.12731e-07 -0)
(-3.54878e-07 -1.28977e-07 -0)
(-3.5552e-07 -1.67587e-07 -0)
(-3.8533e-07 -9.01087e-08 -0)
(-4.34224e-07 -2.31806e-09 -0)
(-4.29349e-07 -7.50776e-08 -0)
(-3.9669e-07 -1.17404e-07 -0)
(-3.46643e-07 1.00536e-08 -0)
(-2.24917e-07 1.0728e-07 -0)
(-1.42963e-07 8.20457e-08 -0)
(-1.62515e-07 3.78964e-08 -0)
(-1.61851e-07 4.79601e-08 -0)
(-6.9135e-08 7.56555e-08 -0)
(5.20585e-09 1.23947e-07 -0)
(7.17757e-09 1.52096e-07 -0)
(-3.82381e-08 1.09355e-07 -0)
(-8.24923e-08 4.49786e-08 -0)
(-1.04683e-07 6.06667e-08 -0)
(-1.16822e-07 1.43575e-07 -0)
(-1.28893e-07 1.607e-07 -0)
(-1.45279e-07 9.97398e-08 -0)
(-1.65627e-07 8.51245e-08 -0)
(-1.8224e-07 1.27009e-07 -0)
(-1.74707e-07 1.61972e-07 -0)
(-1.46283e-07 1.53092e-07 -0)
(-9.42524e-08 1.45966e-07 -0)
(-3.74421e-08 1.63992e-07 -0)
(-3.1166e-08 1.98677e-07 -0)
(-5.86508e-08 2.35337e-07 -0)
(-6.01945e-08 2.31724e-07 -0)
(-2.39999e-08 1.92208e-07 -0)
(1.34291e-07 2.59469e-08 -0)
(8.44412e-08 1.07267e-07 -0)
(6.11272e-08 1.32516e-07 -0)
(9.50509e-08 9.99969e-08 -0)
(1.31323e-07 1.38815e-07 -0)
(1.79646e-07 2.1238e-07 -0)
(2.46061e-07 1.29405e-07 -0)
(2.06574e-07 6.6583e-08 -0)
(1.70545e-07 5.77789e-08 -0)
(2.05326e-07 3.89011e-08 -0)
(1.9094e-07 5.69481e-09 -0)
(1.83876e-07 3.80968e-08 -0)
(2.08368e-07 1.20125e-07 -0)
(2.10372e-07 1.31163e-07 -0)
(1.99504e-07 1.1011e-07 -0)
(1.66265e-07 8.64549e-08 -0)
(1.9453e-07 4.03078e-08 -0)
(2.28057e-07 -2.51516e-08 -0)
(1.49168e-07 -4.15408e-08 -0)
(-1.77417e-08 -7.21027e-08 -0)
(-8.88843e-08 -1.41514e-07 -0)
(-9.7358e-08 -9.96038e-08 -0)
(-3.84243e-08 -1.19053e-07 -0)
(-6.71704e-08 -1.71165e-07 -0)
(-1.28669e-07 -1.76778e-07 -0)
(-8.62229e-08 -2.51e-07 -0)
(-9.54177e-08 -1.87513e-07 -0)
(-1.09587e-07 -1.13669e-07 -0)
(-1.29643e-07 -1.90743e-07 -0)
(-2.3542e-07 -2.20297e-07 -0)
(-3.32688e-07 -1.4385e-07 -0)
(-3.47285e-07 -6.24412e-08 -0)
(-3.57943e-07 -9.17636e-08 -0)
(-4.23978e-07 -1.05726e-07 -0)
(-4.61823e-07 -7.89792e-08 -0)
(-3.70531e-07 -5.61946e-08 -0)
(-2.56936e-07 3.75621e-08 -0)
(-2.06145e-07 1.22421e-07 -0)
(-1.99756e-07 6.18392e-08 -0)
(-1.72205e-07 -1.02429e-08 -0)
(-1.12294e-07 6.95126e-08 -0)
(-3.94364e-08 1.59058e-07 -0)
(-3.15898e-09 1.43301e-07 -0)
(-1.27504e-08 8.76045e-08 -0)
(-5.28764e-08 7.84605e-08 -0)
(-7.84011e-08 1.03216e-07 -0)
(-7.71605e-08 1.23032e-07 -0)
(-1.0052e-07 1.35033e-07 -0)
(-1.5057e-07 1.19592e-07 -0)
(-1.6497e-07 9.15522e-08 -0)
(-1.49104e-07 1.02499e-07 -0)
(-1.5643e-07 1.39447e-07 -0)
(-1.76491e-07 1.57776e-07 -0)
(-1.57131e-07 1.31447e-07 -0)
(-7.88496e-08 1.48219e-07 -0)
(-7.62259e-09 2.00223e-07 -0)
(-1.27721e-08 2.30083e-07 -0)
(-6.37793e-08 2.18549e-07 -0)
(-8.0477e-08 1.86243e-07 -0)
(-3.52568e-08 1.70242e-07 -0)
(1.78032e-07 -2.20622e-09 -0)
(1.33876e-07 3.44101e-08 -0)
(3.00621e-08 9.68181e-08 -0)
(8.49423e-08 1.56064e-07 -0)
(1.96273e-07 1.38194e-07 -0)
(1.90036e-07 1.51404e-07 -0)
(1.63885e-07 1.2035e-07 -0)
(1.82134e-07 8.33621e-08 -0)
(2.19247e-07 7.2804e-08 -0)
(1.92482e-07 8.81854e-08 -0)
(1.22304e-07 6.42037e-08 -0)
(2.06911e-07 2.98032e-08 -0)
(2.95623e-07 9.18881e-08 -0)
(2.11826e-07 1.4687e-07 -0)
(1.35257e-07 1.05097e-07 -0)
(1.50607e-07 4.90772e-08 -0)
(2.03874e-07 6.79738e-08 -0)
(1.91953e-07 2.03037e-08 -0)
(1.0022e-07 -8.19652e-08 -0)
(-3.89431e-08 -1.06011e-07 -0)
(-6.64758e-08 -1.13038e-07 -0)
(-8.84189e-08 -5.29087e-08 -0)
(-9.19994e-08 -9.69107e-08 -0)
(-9.35856e-08 -2.44051e-07 -0)
(-1.23579e-07 -2.1046e-07 -0)
(-8.57761e-08 -1.59801e-07 -0)
(-7.09569e-08 -1.69001e-07 -0)
(-1.10334e-07 -1.95908e-07 -0)
(-1.65903e-07 -2.23581e-07 -0)
(-2.24613e-07 -1.87918e-07 -0)
(-2.60165e-07 -1.31726e-07 -0)
(-3.24268e-07 -5.97041e-08 -0)
(-4.11301e-07 -9.60703e-08 -0)
(-4.26554e-07 -1.7655e-07 -0)
(-3.9963e-07 -8.23088e-08 -0)
(-3.26765e-07 5.23154e-08 -0)
(-2.39473e-07 6.38533e-08 -0)
(-2.10351e-07 3.36243e-08 -0)
(-2.22561e-07 2.93169e-08 -0)
(-1.57911e-07 5.41894e-08 -0)
(-6.02702e-08 1.19648e-07 -0)
(-2.48617e-08 1.51425e-07 -0)
(-3.76665e-08 1.20973e-07 -0)
(-3.17269e-08 8.27961e-08 -0)
(-2.88712e-08 1.01594e-07 -0)
(-5.57497e-08 1.49777e-07 -0)
(-8.55929e-08 1.44463e-07 -0)
(-1.18885e-07 9.78715e-08 -0)
(-1.54982e-07 8.62115e-08 -0)
(-1.55535e-07 1.19728e-07 -0)
(-1.3689e-07 1.3782e-07 -0)
(-1.49073e-07 1.36018e-07 -0)
(-1.79507e-07 1.35659e-07 -0)
(-1.52017e-07 1.39693e-07 -0)
(-5.29868e-08 1.77153e-07 -0)
(1.16764e-08 2.08559e-07 -0)
(-2.01701e-08 1.99256e-07 -0)
(-8.49553e-08 1.63248e-07 -0)
(-8.91791e-08 1.48375e-07 -0)
(-3.36005e-08 1.71677e-07 -0)
(1.53613e-07 3.48401e-08 -0)
(1.43856e-07 2.14682e-08 -0)
(1.3412e-07 7.16842e-08 -0)
(1.19877e-07 1.87004e-07 -0)
(1.28527e-07 1.7176e-07 -0)
(1.68939e-07 1.16607e-07 -0)
(2.05236e-07 1.04044e-07 -0)
(1.78046e-07 1.18354e-07 -0)
(1.73439e-07 5.80289e-08 -0)
(2.00166e-07 2.53054e-08 -0)
(1.55911e-07 1.09563e-07 -0)
(2.00487e-07 1.49102e-07 -0)
(2.78609e-07 8.86418e-08 -0)
(2.18298e-07 5.23249e-08 -0)
(1.40828e-07 9.79146e-08 -0)
(1.4399e-07 1.02426e-07 -0)
(1.77266e-07 7.07594e-08 -0)
(1.38094e-07 -1.90027e-08 -0)
(7.33785e-08 -1.07862e-07 -0)
(-3.63853e-08 -4.47076e-08 -0)
(-5.70227e-08 -4.98211e-08 -0)
(-8.76818e-08 -1.13566e-07 -0)
(-1.5311e-07 -1.29749e-07 -0)
(-1.353e-07 -1.90892e-07 -0)
(-7.81188e-08 -1.86717e-07 -0)
(-6.13473e-08 -1.51595e-07 -0)
(-1.17082e-07 -1.76563e-07 -0)
(-1.42335e-07 -2.48177e-07 -0)
(-1.24849e-07 -2.47097e-07 -0)
(-1.80306e-07 -1.15401e-07 -0)
(-2.5576e-07 -9.09506e-08 -0)
(-3.25892e-07 -1.62874e-07 -0)
(-4.28051e-07 -1.44469e-07 -0)
(-4.15721e-07 -1.15303e-07 -0)
(-3.24504e-07 -4.66375e-08 -0)
(-2.82833e-07 4.75953e-08 -0)
(-2.6815e-07 4.9435e-08 -0)
(-2.26867e-07 -1.65446e-09 -0)
(-1.87417e-07 3.34447e-08 -0)
(-1.18007e-07 1.26889e-07 -0)
(-5.39531e-08 1.5793e-07 -0)
(-3.86415e-08 1.11107e-07 -0)
(-4.43362e-08 9.93358e-08 -0)
(-2.43781e-08 1.3138e-07 -0)
(-1.26882e-08 1.44571e-07 -0)
(-5.26797e-08 1.38413e-07 -0)
(-1.08304e-07 1.16927e-07 -0)
(-1.3547e-07 8.75682e-08 -0)
(-1.37457e-07 1.02221e-07 -0)
(-1.34005e-07 1.50545e-07 -0)
(-1.3933e-07 1.48876e-07 -0)
(-1.57726e-07 1.23137e-07 -0)
(-1.74286e-07 1.21701e-07 -0)
(-1.32235e-07 1.58172e-07 -0)
(-3.75302e-08 1.91798e-07 -0)
(5.63895e-09 1.84736e-07 -0)
(-3.99587e-08 1.51963e-07 -0)
(-9.43081e-08 1.33759e-07 -0)
(-7.54196e-08 1.56999e-07 -0)
(-2.12753e-08 1.97472e-07 -0)
(2.11817e-07 2.31708e-08 -0)
(1.55982e-07 1.04995e-07 -0)
(1.29384e-07 1.10695e-07 -0)
(1.44988e-07 1.11632e-07 -0)
(1.54035e-07 1.60845e-07 -0)
(1.49406e-07 2.21392e-07 -0)
(1.64934e-07 1.62779e-07 -0)
(1.54525e-07 7.42751e-08 -0)
(1.63417e-07 4.28073e-08 -0)
(2.23403e-07 5.92867e-08 -0)
(1.96582e-07 1.13181e-07 -0)
(1.94358e-07 1.3116e-07 -0)
(2.37556e-07 9.15433e-08 -0)
(2.1739e-07 7.58906e-08 -0)
(1.65318e-07 1.2858e-07 -0)
(1.34314e-07 7.7119e-08 -0)
(1.31017e-07 6.88611e-10 -0)
(8.47803e-08 -3.56088e-09 -0)
(8.47972e-08 -5.09777e-08 -0)
(-4.11837e-09 -2.30046e-08 -0)
(-1.07791e-07 -2.95381e-08 -0)
(-1.36376e-07 -1.56467e-07 -0)
(-1.38395e-07 -1.67456e-07 -0)
(-1.27766e-07 -9.51145e-08 -0)
(-1.00001e-07 -1.11547e-07 -0)
(-7.96839e-08 -2.27335e-07 -0)
(-1.28906e-07 -2.55176e-07 -0)
(-1.52654e-07 -1.90987e-07 -0)
(-8.6237e-08 -1.86253e-07 -0)
(-1.30925e-07 -1.52008e-07 -0)
(-2.88649e-07 -1.15962e-07 -0)
(-3.56379e-07 -2.02101e-07 -0)
(-3.82758e-07 -1.73566e-07 -0)
(-3.67855e-07 -5.18704e-08 -0)
(-3.01892e-07 -6.87995e-09 -0)
(-2.69122e-07 -1.76141e-08 -0)
(-2.69023e-07 1.06507e-08 -0)
(-2.19945e-07 4.33271e-08 -0)
(-1.45435e-07 8.28484e-08 -0)
(-8.32199e-08 1.41503e-07 -0)
(-6.97396e-08 1.56524e-07 -0)
(-6.00185e-08 1.08874e-07 -0)
(-2.55024e-08 1.11903e-07 -0)
(-4.586e-09 1.64847e-07 -0)
(-2.46514e-08 1.55526e-07 -0)
(-7.23358e-08 1.04231e-07 -0)
(-1.161e-07 9.20857e-08 -0)
(-1.27709e-07 1.10613e-07 -0)
(-1.17196e-07 1.37703e-07 -0)
(-1.27542e-07 1.50693e-07 -0)
(-1.53335e-07 1.25906e-07 -0)
(-1.65378e-07 1.09635e-07 -0)
(-1.58486e-07 1.25514e-07 -0)
(-1.09959e-07 1.74252e-07 -0)
(-3.70485e-08 1.88097e-07 -0)
(-1.22247e-08 1.62354e-07 -0)
(-5.07561e-08 1.38145e-07 -0)
(-8.19338e-08 1.53858e-07 -0)
(-5.09513e-08 1.97196e-07 -0)
(-9.31667e-09 2.22218e-07 -0)
(2.30513e-07 7.13368e-09 -0)
(1.9637e-07 5.07025e-08 -0)
(1.38102e-07 9.09599e-08 -0)
(1.49967e-07 1.27417e-07 -0)
(1.94383e-07 1.41105e-07 -0)
(1.70099e-07 1.78937e-07 -0)
(1.16966e-07 1.70519e-07 -0)
(1.06063e-07 1.27519e-07 -0)
(1.64446e-07 1.08556e-07 -0)
(2.4239e-07 8.52778e-08 -0)
(1.99035e-07 6.50024e-08 -0)
(1.87505e-07 8.52888e-08 -0)
(2.45447e-07 1.20183e-07 -0)
(2.4052e-07 1.13485e-07 -0)
(1.41565e-07 1.34275e-07 -0)
(6.72553e-08 5.02391e-08 -0)
(1.28858e-07 -6.45882e-08 -0)
(1.07094e-07 2.92798e-08 -0)
(6.17123e-08 5.4005e-08 -0)
(-2.35215e-08 -5.87478e-08 -0)
(-1.371e-07 -9.84814e-08 -0)
(-1.70433e-07 -1.03406e-07 -0)
(-1.16298e-07 -1.06353e-07 -0)
(-1.01755e-07 -9.27823e-08 -0)
(-1.57451e-07 -1.16662e-07 -0)
(-1.47525e-07 -2.3929e-07 -0)
(-9.52735e-08 -2.90698e-07 -0)
(-1.00981e-07 -1.52518e-07 -0)
(-1.01461e-07 -1.11517e-07 -0)
(-1.38131e-07 -2.25756e-07 -0)
(-2.85815e-07 -2.04867e-07 -0)
(-3.60454e-07 -1.6045e-07 -0)
(-3.37913e-07 -1.36517e-07 -0)
(-3.15709e-07 -6.41423e-08 -0)
(-3.0395e-07 -1.67087e-08 -0)
(-2.72315e-07 -3.94371e-08 -0)
(-2.31586e-07 4.266e-09 -0)
(-1.83548e-07 9.16932e-08 -0)
(-1.28511e-07 1.27012e-07 -0)
(-7.38009e-08 1.23846e-07 -0)
(-7.35309e-08 1.36758e-07 -0)
(-6.54142e-08 1.42366e-07 -0)
(-1.07524e-08 1.46136e-07 -0)
(1.79542e-09 1.58295e-07 -0)
(-4.90577e-08 1.3387e-07 -0)
(-9.07437e-08 9.31899e-08 -0)
(-1.04474e-07 1.01704e-07 -0)
(-1.081e-07 1.38003e-07 -0)
(-1.13408e-07 1.48487e-07 -0)
(-1.41083e-07 1.20924e-07 -0)
(-1.63965e-07 9.89402e-08 -0)
(-1.57961e-07 1.13469e-07 -0)
(-1.35516e-07 1.46702e-07 -0)
(-9.46854e-08 1.84817e-07 -0)
(-4.46691e-08 1.77953e-07 -0)
(-2.43325e-08 1.58906e-07 -0)
(-4.5056e-08 1.5852e-07 -0)
(-5.88771e-08 1.94149e-07 -0)
(-3.44038e-08 2.25962e-07 -0)
(-6.26237e-09 2.21109e-07 -0)
(2.46519e-07 2.62509e-08 -0)
(2.06278e-07 5.289e-08 -0)
(1.75412e-07 9.37943e-08 -0)
(1.75075e-07 1.56958e-07 -0)
(1.84948e-07 1.44318e-07 -0)
(1.67054e-07 1.1534e-07 -0)
(1.34083e-07 1.25957e-07 -0)
(1.17347e-07 1.57158e-07 -0)
(1.38072e-07 1.68123e-07 -0)
(1.97271e-07 1.12107e-07 -0)
(1.96589e-07 4.01686e-08 -0)
(2.27467e-07 7.39114e-08 -0)
(2.54474e-07 1.7098e-07 -0)
(2.25845e-07 1.00961e-07 -0)
(1.2737e-07 4.47248e-08 -0)
(1.49964e-08 7.80208e-08 -0)
(1.18441e-07 6.33993e-09 -0)
(1.55936e-07 5.43355e-09 -0)
(3.19806e-08 4.52903e-08 -0)
(-9.56102e-08 -5.7e-08 -0)
(-1.34586e-07 -1.21313e-07 -0)
(-1.41099e-07 -5.15338e-08 -0)
(-1.32021e-07 -2.60913e-08 -0)
(-1.33952e-07 -1.25528e-07 -0)
(-1.87906e-07 -1.96634e-07 -0)
(-1.84105e-07 -1.922e-07 -0)
(-7.68424e-08 -2.1741e-07 -0)
(-4.51458e-08 -1.812e-07 -0)
(-1.3018e-07 -1.29482e-07 -0)
(-1.86935e-07 -2.38766e-07 -0)
(-2.49465e-07 -2.52552e-07 -0)
(-3.15369e-07 -1.25972e-07 -0)
(-3.24974e-07 -8.51832e-08 -0)
(-2.9597e-07 -1.02898e-07 -0)
(-2.87068e-07 -5.79413e-08 -0)
(-2.56537e-07 -7.75501e-09 -0)
(-1.90345e-07 4.13536e-08 -0)
(-1.46298e-07 9.68041e-08 -0)
(-1.26143e-07 1.29386e-07 -0)
(-7.73725e-08 1.18023e-07 -0)
(-5.86276e-08 1.34633e-07 -0)
(-5.43916e-08 1.76429e-07 -0)
(-1.59451e-08 1.70875e-07 -0)
(-1.19456e-08 1.33599e-07 -0)
(-6.37145e-08 1.1248e-07 -0)
(-9.16351e-08 1.13935e-07 -0)
(-8.9212e-08 1.31141e-07 -0)
(-9.96397e-08 1.44513e-07 -0)
(-1.27443e-07 1.27296e-07 -0)
(-1.5727e-07 9.04193e-08 -0)
(-1.57808e-07 9.84395e-08 -0)
(-1.36721e-07 1.37339e-07 -0)
(-1.15677e-07 1.6844e-07 -0)
(-9.1208e-08 1.80171e-07 -0)
(-5.25947e-08 1.62512e-07 -0)
(-2.38848e-08 1.62453e-07 -0)
(-2.96106e-08 1.8032e-07 -0)
(-4.14687e-08 2.12302e-07 -0)
(-3.47753e-08 2.14564e-07 -0)
(-1.22283e-08 1.89698e-07 -0)
(2.77997e-07 1.05384e-08 -0)
(2.36896e-07 5.78757e-08 -0)
(2.00543e-07 1.10364e-07 -0)
(1.80281e-07 1.64867e-07 -0)
(1.69412e-07 1.62463e-07 -0)
(1.59083e-07 1.40727e-07 -0)
(1.42057e-07 1.42246e-07 -0)
(1.31363e-07 1.28365e-07 -0)
(1.37415e-07 1.10249e-07 -0)
(1.65617e-07 1.31028e-07 -0)
(1.76117e-07 1.27253e-07 -0)
(2.65991e-07 8.22296e-08 -0)
(2.61677e-07 1.36047e-07 -0)
(1.64767e-07 9.52886e-08 -0)
(1.27801e-07 -1.01842e-08 -0)
(4.42244e-08 7.92033e-08 -0)
(8.53055e-08 1.10917e-07 -0)
(1.30464e-07 -8.68719e-09 -0)
(2.42522e-08 -5.41214e-08 -0)
(-1.23484e-07 -4.00922e-08 -0)
(-1.3382e-07 -3.87717e-08 -0)
(-1.13299e-07 -3.0287e-08 -0)
(-1.60695e-07 -4.18425e-08 -0)
(-2.0408e-07 -1.28642e-07 -0)
(-1.97454e-07 -2.18555e-07 -0)
(-1.5999e-07 -1.60668e-07 -0)
(-8.8673e-08 -1.29854e-07 -0)
(-4.82251e-08 -2.1108e-07 -0)