/*--------------------------------*- C++ -*----------------------------------*\
  =========                 |
  \\      /  F ield         | OpenFOAM: The Open Source CFD Toolbox
   \\    /   O peration     | Website:  https://openfoam.org
    \\  /    A nd           | Version:  8
     \\/     M anipulation  |
\*---------------------------------------------------------------------------*/
FoamFile
{
    version     2.0;
    format      ascii;
    class       volVectorField;
    location    "1";
    object      U;
}
// * * * * * * * * * * * * * * * * * * * * * * * * * * * * * * * * * * * * * //

dimensions      [0 1 -1 0 0 0 0];

internalField   nonuniform List<vector> 
3600
(
(0.000315713 -0.00973768 -0)
(0.000317782 -0.00921119 -0)
(0.000321572 -0.00867944 -0)
(0.00032638 -0.00813989 -0)
(0.000331207 -0.00759152 -0)
(0.000182768 -0.00703526 -0)
(0.000517687 -0.139636 -0)
(0.000420593 -0.138977 -0)
(0.000469719 -0.13823 -0)
(0.000512168 -0.137407 -0)
(0.00054855 -0.136519 -0)
(0.000579976 -0.135576 -0)
(0.000607573 -0.134584 -0)
(0.00063229 -0.133549 -0)
(0.000654844 -0.132475 -0)
(0.000675769 -0.131365 -0)
(0.00069547 -0.130222 -0)
(0.000714287 -0.129046 -0)
(0.000732587 -0.12784 -0)
(0.000750845 -0.126604 -0)
(0.000769765 -0.125338 -0)
(0.000790407 -0.124039 -0)
(0.000814254 -0.122705 -0)
(0.000843131 -0.121328 -0)
(0.000878762 -0.119899 -0)
(0.000922076 -0.118404 -0)
(0.000972739 -0.11683 -0)
(0.00102932 -0.115165 -0)
(0.00108975 -0.113401 -0)
(0.00115183 -0.111533 -0)
(0.00121345 -0.109561 -0)
(0.00127276 -0.107487 -0)
(0.00132821 -0.105316 -0)
(0.00137849 -0.103057 -0)
(0.00142248 -0.100718 -0)
(0.00145922 -0.0983106 -0)
(0.00148778 -0.0958485 -0)
(0.00150733 -0.0933459 -0)
(0.00151713 -0.0908183 -0)
(0.00151679 -0.0882827 -0)
(0.00150662 -0.0857564 -0)
(0.00173422 -0.0832556 -0)
(0.00122398 -0.039986 -0)
(0.00145565 -0.0375466 -0)
(0.00144033 -0.0351333 -0)
(0.00142556 -0.0327458 -0)
(0.00141202 -0.0303822 -0)
(0.00139983 -0.0280399 -0)
(0.00138883 -0.0257168 -0)
(0.00137872 -0.023411 -0)
(0.00136925 -0.0211214 -0)
(0.00136026 -0.0188471 -0)
(0.00135166 -0.0165875 -0)
(0.0013435 -0.0143419 -0)
(0.00133593 -0.0121095 -0)
(0.00132913 -0.00988923 -0)
(0.00132334 -0.00767964 -0)
(0.00131877 -0.00547883 -0)
(0.00131561 -0.00328459 -0)
(0.00131399 -0.00109441 -0)
(0.000314968 -9.876e-07 -0)
(0.000317162 -2.81113e-06 -0)
(0.000321206 -4.16239e-06 -0)
(0.000326373 -4.7062e-06 -0)
(0.000331574 -4.2046e-06 -0)
(0.000183068 -2.77867e-06 -0)
(0.000519238 -5.23981e-05 -0)
(0.000422763 -4.74266e-05 -0)
(0.000472122 -4.11479e-05 -0)
(0.000514353 -3.51371e-05 -0)
(0.000550335 -3.01149e-05 -0)
(0.000581354 -2.62078e-05 -0)
(0.000608611 -2.32634e-05 -0)
(0.000633068 -2.1066e-05 -0)
(0.000655431 -1.94135e-05 -0)
(0.00067621 -1.81595e-05 -0)
(0.000695787 -1.72202e-05 -0)
(0.000714474 -1.65686e-05 -0)
(0.000732602 -1.62611e-05 -0)
(0.000750607 -1.64427e-05 -0)
(0.000769146 -1.73766e-05 -0)
(0.000789252 -1.94477e-05 -0)
(0.000812443 -2.30814e-05 -0)
(0.000840697 -2.85235e-05 -0)
(0.000875997 -3.542e-05 -0)
(0.00091943 -4.26225e-05 -0)
(0.000970611 -4.88845e-05 -0)
(0.00102793 -5.34001e-05 -0)
(0.00108916 -5.58678e-05 -0)
(0.00115199 -5.6326e-05 -0)
(0.00121428 -5.49862e-05 -0)
(0.00127415 -5.21165e-05 -0)
(0.00133007 -4.7974e-05 -0)
(0.00138075 -4.27671e-05 -0)
(0.0014251 -3.66422e-05 -0)
(0.00146216 -2.96808e-05 -0)
(0.00149103 -2.19229e-05 -0)
(0.00151083 -1.34166e-05 -0)
(0.00152078 -4.31395e-06 -0)
(0.00152034 4.98083e-06 -0)
(0.00150964 1.36401e-05 -0)
(0.00173645 2.03757e-05 -0)
(0.00122474 1.24926e-05 -0)
(0.00145595 1.39967e-05 -0)
(0.00144013 1.38794e-05 -0)
(0.00142512 1.28542e-05 -0)
(0.00141153 1.15502e-05 -0)
(0.00139941 1.03473e-05 -0)
(0.0013885 9.40361e-06 -0)
(0.00137849 8.73129e-06 -0)
(0.00136909 8.26752e-06 -0)
(0.00136011 7.91564e-06 -0)
(0.0013515 7.56904e-06 -0)
(0.00134329 7.13255e-06 -0)
(0.00133565 6.53703e-06 -0)
(0.00132877 5.74151e-06 -0)
(0.0013229 4.73421e-06 -0)
(0.00131826 3.53503e-06 -0)
(0.00131505 2.18598e-06 -0)
(0.00131341 7.39829e-07 -0)
(0.000313434 -1.70659e-06 -0)
(0.000315877 -4.87359e-06 -0)
(0.000320435 -7.25926e-06 -0)
(0.000326355 -8.25978e-06 -0)
(0.000332363 -7.37482e-06 -0)
(0.000183719 -4.72757e-06 -0)
(0.000522575 -8.86489e-05 -0)
(0.000427344 -7.95693e-05 -0)
(0.000477092 -6.84766e-05 -0)
(0.000518788 -5.8168e-05 -0)
(0.000553908 -4.97468e-05 -0)
(0.000584087 -4.32929e-05 -0)
(0.000610658 -3.84741e-05 -0)
(0.0006346 -3.48902e-05 -0)
(0.000656588 -3.21957e-05 -0)
(0.000677085 -3.01405e-05 -0)
(0.000696424 -2.85822e-05 -0)
(0.000714862 -2.74756e-05 -0)
(0.000732663 -2.69034e-05 -0)
(0.000750176 -2.71015e-05 -0)
(0.000767962 -2.85069e-05 -0)
(0.000786984 -3.17892e-05 -0)
(0.000808809 -3.77517e-05 -0)
(0.000835727 -4.69607e-05 -0)
(0.000870303 -5.89117e-05 -0)
(0.000913997 -7.14115e-05 -0)
(0.000966273 -8.21707e-05 -0)
(0.00102513 -8.98194e-05 -0)
(0.001088 -9.39162e-05 -0)
(0.00115236 -9.45952e-05 -0)
(0.00121597 -9.22559e-05 -0)
(0.00127697 -8.73708e-05 -0)
(0.00133382 -8.03829e-05 -0)
(0.00138529 -7.16473e-05 -0)
(0.00143034 -6.14055e-05 -0)
(0.00146805 -4.97868e-05 -0)
(0.00149754 -3.68368e-05 -0)
(0.00151789 -2.25979e-05 -0)
(0.00152817 -7.2645e-06 -0)
(0.00152757 8.5575e-06 -0)
(0.00151586 2.35031e-05 -0)
(0.00174103 3.52677e-05 -0)
(0.00122626 2.16003e-05 -0)
(0.00145648 2.39751e-05 -0)
(0.00143965 2.3495e-05 -0)
(0.00142416 2.15363e-05 -0)
(0.00141051 1.92118e-05 -0)
(0.00139854 1.71427e-05 -0)
(0.00138786 1.55625e-05 -0)
(0.00137804 1.44682e-05 -0)
(0.00136877 1.37355e-05 -0)
(0.00135984 1.31897e-05 -0)
(0.00135119 1.26484e-05 -0)
(0.00134288 1.1951e-05 -0)
(0.0013351 1.09768e-05 -0)
(0.00132805 9.65401e-06 -0)
(0.00132202 7.96658e-06 -0)
(0.00131724 5.95263e-06 -0)
(0.00131393 3.68108e-06 -0)
(0.00131224 1.24639e-06 -0)
(0.00031102 -2.51459e-06 -0)
(0.000313831 -7.21738e-06 -0)
(0.000319174 -1.0855e-05 -0)
(0.000326304 -1.24921e-05 -0)
(0.000333693 -1.11796e-05 -0)
(0.000184834 -6.83922e-06 -0)
(0.000528227 -0.000127052 -0)
(0.000434866 -0.000112437 -0)
(0.000484963 -9.55231e-05 -0)
(0.000525591 -8.05195e-05 -0)
(0.00055926 -6.86712e-05 -0)
(0.000588118 -5.97891e-05 -0)
(0.000613653 -5.32411e-05 -0)
(0.000636835 -4.83948e-05 -0)
(0.000658281 -4.4747e-05 -0)
(0.000678378 -4.19437e-05 -0)
(0.000697386 -3.97816e-05 -0)
(0.000715481 -3.81904e-05 -0)
(0.000732827 -3.72688e-05 -0)
(0.000749645 -3.73262e-05 -0)
(0.000766333 -3.89628e-05 -0)
(0.000783705 -4.31656e-05 -0)
(0.00080334 -5.12545e-05 -0)
(0.000828001 -6.44108e-05 -0)
(0.000861326 -8.22049e-05 -0)
(0.000905475 -0.000100828 -0)
(0.000959566 -0.000116576 -0)
(0.00102088 -0.000127517 -0)
(0.0010863 -0.000133196 -0)
(0.00115299 -0.000133951 -0)
(0.00121861 -0.000130441 -0)
(0.00128127 -0.000123382 -0)
(0.0013395 -0.000113421 -0)
(0.00139213 -0.000101069 -0)
(0.00143821 -8.6665e-05 -0)
(0.0014769 -7.03712e-05 -0)
(0.00150734 -5.22128e-05 -0)
(0.00152858 -3.21723e-05 -0)
(0.00153947 -1.03911e-05 -0)
(0.0015388 1.24497e-05 -0)
(0.00152567 3.45146e-05 -0)
(0.00174826 5.22542e-05 -0)
(0.00122854 3.19948e-05 -0)
(0.00145709 3.49807e-05 -0)
(0.00143867 3.36436e-05 -0)
(0.00142255 3.03501e-05 -0)
(0.00140889 2.67797e-05 -0)
(0.00139722 2.37616e-05 -0)
(0.0013869 2.15473e-05 -0)
(0.00137739 2.00747e-05 -0)
(0.00136832 1.91349e-05 -0)
(0.00135946 1.84621e-05 -0)
(0.00135075 1.7786e-05 -0)
(0.00134229 1.6871e-05 -0)
(0.00133427 1.5541e-05 -0)
(0.00132697 1.36951e-05 -0)
(0.00132068 1.13176e-05 -0)
(0.00131569 8.46327e-06 -0)
(0.00131223 5.2356e-06 -0)
(0.00131045 1.77197e-06 -0)
(0.000307594 -3.43979e-06 -0)
(0.000310873 -9.9446e-06 -0)
(0.00031727 -1.51709e-05 -0)
(0.00032616 -1.77861e-05 -0)
(0.000335755 -1.60746e-05 -0)
(0.000186615 -9.22765e-06 -0)
(0.000537183 -0.000168876 -0)
(0.000446261 -0.000146132 -0)
(0.000496243 -0.000121882 -0)
(0.000534899 -0.000101735 -0)
(0.000566346 -8.65285e-05 -0)
(0.000593345 -7.5445e-05 -0)
(0.000617495 -6.73958e-05 -0)
(0.000639696 -6.14683e-05 -0)
(0.000660459 -5.69934e-05 -0)
(0.000680064 -5.35165e-05 -0)
(0.000698676 -5.07744e-05 -0)
(0.00071637 -4.86646e-05 -0)
(0.000733181 -4.72827e-05 -0)
(0.00074916 -4.69822e-05 -0)
(0.000764459 -4.84969e-05 -0)
(0.000779609 -5.31427e-05 -0)
(0.000796062 -6.29333e-05 -0)
(0.000817157 -8.01919e-05 -0)
(0.000848453 -0.0001052 -0)
(0.000893374 -0.000131278 -0)
(0.000950259 -0.000152713 -0)
(0.00101515 -0.00016711 -0)
(0.00108414 -0.000174248 -0)
(0.00115401 -0.000174844 -0)
(0.00122231 -0.000169903 -0)
(0.00128718 -0.000160436 -0)
(0.00134721 -0.00014732 -0)
(0.00140134 -0.000131231 -0)
(0.00144875 -0.000112604 -0)
(0.00148872 -9.16252e-05 -0)
(0.00152046 -6.82663e-05 -0)
(0.00154298 -4.2374e-05 -0)
(0.00155494 -1.38972e-05 -0)
(0.00155451 1.66224e-05 -0)
(0.00153974 4.70829e-05 -0)
(0.00175871 7.24588e-05 -0)
(0.00123158 4.44839e-05 -0)
(0.00145747 4.75422e-05 -0)
(0.00143687 4.4495e-05 -0)
(0.00142004 3.92633e-05 -0)
(0.00140656 3.41493e-05 -0)
(0.0013954 3.00906e-05 -0)
(0.00138565 2.72644e-05 -0)
(0.00137659 2.54899e-05 -0)
(0.0013678 2.44389e-05 -0)
(0.00135903 2.37357e-05 -0)
(0.00135023 2.301e-05 -0)
(0.00134154 2.19403e-05 -0)
(0.00133319 2.02894e-05 -0)
(0.00132552 1.79287e-05 -0)
(0.00131888 1.48432e-05 -0)
(0.00131359 1.11082e-05 -0)
(0.00130991 6.87336e-06 -0)
(0.00130803 2.32612e-06 -0)
(0.000302989 -4.49963e-06 -0)
(0.000306792 -1.31323e-05 -0)
(0.000314469 -2.04265e-05 -0)
(0.000325762 -2.46384e-05 -0)
(0.000338828 -2.28182e-05 -0)
(0.000189412 -1.21141e-05 -0)
(0.000551279 -0.000215926 -0)
(0.000463063 -0.00018037 -0)
(0.000511601 -0.000146763 -0)
(0.000546803 -0.000121171 -0)
(0.000575034 -0.000102902 -0)
(0.000599598 -9.00075e-05 -0)
(0.000622039 -8.07861e-05 -0)
(0.000643076 -7.40189e-05 -0)
(0.000663052 -6.88801e-05 -0)
(0.000682109 -6.48256e-05 -0)
(0.000700297 -6.15386e-05 -0)
(0.000717576 -5.88775e-05 -0)
(0.000733836 -5.69084e-05 -0)
(0.000748917 -5.59839e-05 -0)
(0.000762637 -5.69056e-05 -0)
(0.000775043 -6.12677e-05 -0)
(0.000787111 -7.19235e-05 -0)
(0.000802641 -9.31831e-05 -0)
(0.000830675 -0.000127809 -0)
(0.000876967 -0.0001634 -0)
(0.000938067 -0.000191384 -0)
(0.00100796 -0.000209317 -0)
(0.00108166 -0.000217654 -0)
(0.0011556 -0.000217728 -0)
(0.00122725 -0.000210996 -0)
(0.00129482 -0.000198805 -0)
(0.00135703 -0.000182289 -0)
(0.00141296 -0.000162306 -0)
(0.00146198 -0.000139389 -0)
(0.0015035 -0.000113736 -0)
(0.00153689 -8.52305e-05 -0)
(0.0015612 -5.35061e-05 -0)
(0.00157487 -1.81391e-05 -0)
(0.00157538 2.08168e-05 -0)
(0.00155917 6.1482e-05 -0)
(0.0017734 9.73422e-05 -0)
(0.00123533 6.03294e-05 -0)
(0.00145709 6.23015e-05 -0)
(0.0014337 5.61326e-05 -0)
(0.00141634 4.81336e-05 -0)
(0.00140339 4.114e-05 -0)
(0.00139309 3.59766e-05 -0)
(0.00138414 3.26014e-05 -0)
(0.0013757 3.06439e-05 -0)
(0.00136727 2.96192e-05 -0)
(0.0013586 2.90174e-05 -0)
(0.00134968 2.83557e-05 -0)
(0.00134066 2.72186e-05 -0)
(0.00133187 2.52969e-05 -0)
(0.0013237 2.24271e-05 -0)
(0.00131659 1.85997e-05 -0)
(0.00131091 1.39314e-05 -0)
(0.00130696 8.62351e-06 -0)
(0.00130493 2.91884e-06 -0)
(0.000297015 -5.69148e-06 -0)
(0.000301316 -1.68019e-05 -0)
(0.000310366 -2.67918e-05 -0)
(0.000324725 -3.36623e-05 -0)
(0.000343269 -3.27602e-05 -0)
(0.000193828 -1.61289e-05 -0)
(0.00057433 -0.000270794 -0)
(0.000487758 -0.000213906 -0)
(0.000531762 -0.00016876 -0)
(0.000561216 -0.000137971 -0)
(0.000585044 -0.000117342 -0)
(0.000606615 -0.000103247 -0)
(0.000627088 -9.32935e-05 -0)
(0.00064684 -8.59836e-05 -0)
(0.000665975 -8.03752e-05 -0)
(0.000684469 -7.58601e-05 -0)
(0.000702245 -7.20776e-05 -0)
(0.000719148 -6.8841e-05 -0)
(0.000734917 -6.61592e-05 -0)
(0.000749161 -6.43207e-05 -0)
(0.000761288 -6.40771e-05 -0)
(0.000770599 -6.71265e-05 -0)
(0.000776912 -7.70965e-05 -0)
(0.000783626 -0.000101362 -0)
(0.000806323 -0.000150072 -0)
(0.00085523 -0.000198262 -0)
(0.000922709 -0.000233671 -0)
(0.000999392 -0.000254979 -0)
(0.00107909 -0.000264036 -0)
(0.00115801 -0.000263061 -0)
(0.00123367 -0.000254052 -0)
(0.0013044 -0.00023873 -0)
(0.0013691 -0.000218507 -0)
(0.00142708 -0.000194437 -0)
(0.0014779 -0.000167159 -0)
(0.00152122 -0.000136875 -0)
(0.0015566 -0.000103353 -0)
(0.00158324 -6.59483e-05 -0)
(0.00159953 -2.36745e-05 -0)
(0.00160228 2.43963e-05 -0)
(0.00158566 7.76132e-05 -0)
(0.00179422 0.000128841 -0)
(0.00123975 8.1759e-05 -0)
(0.00145495 7.99906e-05 -0)
(0.00142837 6.84319e-05 -0)
(0.00141105 5.66435e-05 -0)
(0.00139927 4.74694e-05 -0)
(0.00139028 4.12174e-05 -0)
(0.00138245 3.74297e-05 -0)
(0.0013748 3.54622e-05 -0)
(0.00136682 3.46444e-05 -0)
(0.00135827 3.43202e-05 -0)
(0.00134915 3.38761e-05 -0)
(0.0013397 3.27811e-05 -0)
(0.00133031 3.06436e-05 -0)
(0.0013215 2.72675e-05 -0)
(0.00131378 2.26583e-05 -0)
(0.0013076 1.69862e-05 -0)
(0.00130331 1.05171e-05 -0)
(0.00130111 3.56e-06 -0)
(0.000289493 -6.98122e-06 -0)
(0.000294132 -2.08747e-05 -0)
(0.000304353 -3.42803e-05 -0)
(0.000322181 -4.54845e-05 -0)
(0.000349348 -4.83646e-05 -0)
(0.000200944 -2.39435e-05 -0)
(0.000616482 -0.000336355 -0)
(0.000524283 -0.000243216 -0)
(0.000557163 -0.000185588 -0)
(0.000577654 -0.000151111 -0)
(0.000595868 -0.00012943 -0)
(0.000614027 -0.000114994 -0)
(0.000632397 -0.000104849 -0)
(0.000650827 -9.73372e-05 -0)
(0.000669126 -9.14756e-05 -0)
(0.000687088 -8.66328e-05 -0)
(0.000704509 -8.24204e-05 -0)
(0.000721127 -7.86039e-05 -0)
(0.000736548 -7.5108e-05 -0)
(0.000750166 -7.20828e-05 -0)
(0.000760954 -7.00639e-05 -0)
(0.000767232 -7.0493e-05 -0)
(0.00076657 -7.71241e-05 -0)
(0.000758856 -0.00010074 -0)
(0.000772534 -0.00017252 -0)
(0.000826807 -0.000237727 -0)
(0.000904037 -0.000281036 -0)
(0.00098974 -0.000305051 -0)
(0.00107681 -0.000314027 -0)
(0.00116159 -0.000311286 -0)
(0.00124185 -0.000299382 -0)
(0.00131615 -0.000280419 -0)
(0.0013836 -0.000256111 -0)
(0.00144377 -0.000227724 -0)
(0.00149652 -0.000196008 -0)
(0.00154179 -0.000161176 -0)
(0.00157945 -0.000122876 -0)
(0.00160901 -8.01431e-05 -0)
(0.00162908 -3.12947e-05 -0)
(0.00163616 2.61254e-05 -0)
(0.00162183 9.44591e-05 -0)
(0.00182494 0.000169418 -0)
(0.00124467 0.000113189 -0)
(0.0014491 0.000101205 -0)
(0.00141969 8.08131e-05 -0)
(0.00140376 6.42116e-05 -0)
(0.00139413 5.27468e-05 -0)
(0.00138706 4.557e-05 -0)
(0.00138068 4.16025e-05 -0)
(0.00137403 3.98678e-05 -0)
(0.00136658 3.94928e-05 -0)
(0.00135814 3.96665e-05 -0)
(0.00134875 3.96304e-05 -0)
(0.00133872 3.87172e-05 -0)
(0.00132856 3.64353e-05 -0)
(0.00131891 3.25513e-05 -0)
(0.00131042 2.71013e-05 -0)
(0.00130362 2.03293e-05 -0)
(0.0012989 1.25862e-05 -0)
(0.00129649 4.25978e-06 -0)
(0.000280302 -8.29605e-06 -0)
(0.000284937 -2.51233e-05 -0)
(0.0002956 -4.25612e-05 -0)
(0.000316274 -6.03036e-05 -0)
(0.000356194 -7.37974e-05 -0)
(0.000212757 -4.99019e-05 -0)
(0.000715722 -0.00040851 -0)
(0.000578219 -0.000259741 -0)
(0.000587025 -0.000194082 -0)
(0.00059491 -0.000159642 -0)
(0.000606714 -0.000138911 -0)
(0.000621363 -0.000125195 -0)
(0.000637682 -0.000115455 -0)
(0.000654864 -0.000108099 -0)
(0.000672397 -0.000102208 -0)
(0.000689902 -9.71799e-05 -0)
(0.000707063 -9.26212e-05 -0)
(0.000723535 -8.82513e-05 -0)
(0.00073883 -8.3888e-05 -0)
(0.000752188 -7.94808e-05 -0)
(0.000762242 -7.51716e-05 -0)
(0.000766363 -7.16261e-05 -0)
(0.000758764 -7.10364e-05 -0)
(0.000726388 -8.27812e-05 -0)
(0.000724131 -0.000197334 -0)
(0.00079012 -0.000285075 -0)
(0.000882314 -0.000335346 -0)
(0.000979597 -0.000360536 -0)
(0.00107535 -0.000368237 -0)
(0.00116679 -0.000362809 -0)
(0.00125219 -0.000347254 -0)
(0.00133036 -0.000324032 -0)
(0.00140072 -0.000295181 -0)
(0.00146314 -0.000262207 -0)
(0.00151782 -0.00022598 -0)
(0.0015651 -0.000186726 -0)
(0.00160522 -0.000143992 -0)
(0.00163819 -9.65384e-05 -0)
(0.0016633 -4.20012e-05 -0)
(0.00167773 2.39258e-05 -0)
(0.00167163 0.000108921 -0)
(0.00187337 0.000221602 -0)
(0.00124965 0.000164312 -0)
(0.00143553 0.000125448 -0)
(0.00140617 9.18283e-05 -0)
(0.00139421 6.99292e-05 -0)
(0.00138808 5.64812e-05 -0)
(0.0013836 4.87686e-05 -0)
(0.00137902 4.49717e-05 -0)
(0.00137354 4.37838e-05 -0)
(0.0013667 4.41436e-05 -0)
(0.00135835 4.50882e-05 -0)
(0.00134858 4.56998e-05 -0)
(0.00133778 4.5146e-05 -0)
(0.00132662 4.28053e-05 -0)
(0.0013159 3.84e-05 -0)
(0.00130645 3.20214e-05 -0)
(0.00129889 2.40218e-05 -0)
(0.00129366 1.48647e-05 -0)
(0.001291 5.02895e-06 -0)
(0.000269442 -9.52653e-06 -0)
(0.000273573 -2.91523e-05 -0)
(0.000283245 -5.07327e-05 -0)
(0.000303439 -7.66523e-05 -0)
(0.000355589 -0.00011269 -0)
(0.000232968 -0.000178678 -0)
(0.00105946 -0.000604082 -0)
(0.00065294 -0.000350115 -0)
(0.000617222 -0.000275876 -0)
(0.000610757 -0.000237343 -0)
(0.000616536 -0.000213159 -0)
(0.0006281 -0.000196403 -0)
(0.000642654 -0.000183957 -0)
(0.000658776 -0.000174131 -0)
(0.000675678 -0.000165906 -0)
(0.00069284 -0.00015855 -0)
(0.000709866 -0.000151527 -0)
(0.000726367 -0.000144369 -0)
(0.000741811 -0.000136619 -0)
(0.000755396 -0.00012781 -0)
(0.000765666 -0.000117305 -0)
(0.000769713 -0.000104122 -0)
(0.000759877 -8.52161e-05 -0)
(0.000683078 -2.22128e-05 -0)
(0.000651158 -0.000273939 -0)
(0.000744 -0.000409342 -0)
(0.00085876 -0.000470829 -0)
(0.000970005 -0.000498132 -0)
(0.00107544 -0.000503488 -0)
(0.00117418 -0.000492396 -0)
(0.00126512 -0.000468538 -0)
(0.00134739 -0.000435171 -0)
(0.0014207 -0.000395134 -0)
(0.00148529 -0.00035052 -0)
(0.0015418 -0.000302515 -0)
(0.00159098 -0.000251401 -0)
(0.00163356 -0.00019658 -0)
(0.0016702 -0.000136422 -0)
(0.00170136 -6.77011e-05 -0)
(0.00172671 1.62272e-05 -0)
(0.00174044 0.000132057 -0)
(0.00195676 0.000338791 -0)
(0.00125346 0.00025832 -0)
(0.00140561 0.000147801 -0)
(0.00138638 9.86247e-05 -0)
(0.00138256 7.26049e-05 -0)
(0.00138144 5.81515e-05 -0)
(0.00138016 5.05582e-05 -0)
(0.00137769 4.74013e-05 -0)
(0.00137353 4.71417e-05 -0)
(0.00136737 4.85837e-05 -0)
(0.00135907 5.06304e-05 -0)
(0.00134879 5.21895e-05 -0)
(0.00133698 5.22192e-05 -0)
(0.00132451 4.99194e-05 -0)
(0.00131244 4.49589e-05 -0)
(0.00130179 3.75245e-05 -0)
(0.00129333 2.81301e-05 -0)
(0.00128751 1.73872e-05 -0)
(0.00128455 5.87804e-06 -0)
(0.000257094 -1.05506e-05 -0)
(0.000260213 -3.24776e-05 -0)
(0.0002671 -5.73423e-05 -0)
(0.0002791 -8.93584e-05 -0)
(0.000294978 -0.000140801 -0)
(0.000262248 -0.00026223 -0)
(0.00013249 -0.000166264 -0)
(3.87571e-05 -0.000122557 -0)
(3.27344e-05 -0.00010178 -0)
(3.16271e-05 -8.96007e-05 -0)
(3.15639e-05 -8.1529e-05 -0)
(3.19442e-05 -7.57403e-05 -0)
(3.25523e-05 -7.13294e-05 -0)
(3.32847e-05 -6.77754e-05 -0)
(3.40873e-05 -6.47405e-05 -0)
(3.49265e-05 -6.19805e-05 -0)
(3.57785e-05 -5.92966e-05 -0)
(3.6624e-05 -5.65073e-05 -0)
(3.74383e-05 -5.34208e-05 -0)
(3.81888e-05 -4.98042e-05 -0)
(3.88227e-05 -4.53202e-05 -0)
(3.92808e-05 -3.9361e-05 -0)
(4.03955e-05 -3.04731e-05 -0)
(3.06577e-05 -1.37973e-05 -0)
(0.000245927 -0.000265327 -0)
(0.000335993 -0.00034354 -0)
(0.00041452 -0.000381456 -0)
(0.000480001 -0.000397627 -0)
(0.000539396 -0.000398643 -0)
(0.000593881 -0.000387708 -0)
(0.000643261 -0.000367274 -0)
(0.000687204 -0.000339856 -0)
(0.000725756 -0.000307765 -0)
(0.000759357 -0.000272688 -0)
(0.000788648 -0.000235555 -0)
(0.000814328 -0.000196578 -0)
(0.000837102 -0.00015532 -0)
(0.000857758 -0.000110633 -0)
(0.000877443 -6.03295e-05 -0)
(0.000898795 -1.11594e-07 -0)
(0.000932585 7.98736e-05 -0)
(0.00105206 0.00020833 -0)
(0.00123669 0.000267737 -0)
(0.00133971 0.000148072 -0)
(0.00136105 9.70859e-05 -0)
(0.00136993 7.11174e-05 -0)
(0.00137485 5.73517e-05 -0)
(0.00137715 5.07498e-05 -0)
(0.00137697 4.87875e-05 -0)
(0.00137425 4.98868e-05 -0)
(0.00136879 5.28063e-05 -0)
(0.00136052 5.63487e-05 -0)
(0.00134954 5.92298e-05 -0)
(0.00133642 6.01311e-05 -0)
(0.00132226 5.79905e-05 -0)
(0.00130846 5.24074e-05 -0)
(0.00129635 4.37328e-05 -0)
(0.00128681 3.27233e-05 -0)
(0.00128031 2.0186e-05 -0)
(0.00127704 6.816e-06 -0)
(0.000243625 -1.12776e-05 -0)
(0.000245498 -3.47453e-05 -0)
(0.000249116 -6.13769e-05 -0)
(0.000253364 -9.50706e-05 -0)
(0.000251866 -0.000143717 -0)
(0.00021769 -0.00021917 -0)
(0.000136776 -0.000264201 -0)
(7.13371e-05 -0.000214166 -0)
(5.06351e-05 -0.000182444 -0)
(4.26884e-05 -0.00016215 -0)
(3.91431e-05 -0.000148213 -0)
(3.75247e-05 -0.000138043 -0)
(3.69116e-05 -0.000130215 -0)
(3.68922e-05 -0.000123868 -0)
(3.72608e-05 -0.000118423 -0)
(3.79083e-05 -0.000113456 -0)
(3.87772e-05 -0.000108616 -0)
(3.98438e-05 -0.000103579 -0)
(4.11124e-05 -9.80046e-05 -0)
(4.26302e-05 -9.14815e-05 -0)
(4.45492e-05 -8.34412e-05 -0)
(4.73939e-05 -7.29491e-05 -0)
(5.3332e-05 -5.82536e-05 -0)
(3.65181e-05 -3.71307e-05 -0)
(0.000202239 -0.000411262 -0)
(0.000302322 -0.0004652 -0)
(0.000396928 -0.000499254 -0)
(0.000474691 -0.000513738 -0)
(0.000543674 -0.000511687 -0)
(0.00060591 -0.000495429 -0)
(0.000661271 -0.000467467 -0)
(0.000709403 -0.000431059 -0)
(0.00075065 -0.000389338 -0)
(0.000785973 -0.000344526 -0)
(0.000816568 -0.000297781 -0)
(0.000843631 -0.000249341 -0)
(0.000868347 -0.000198696 -0)
(0.000892094 -0.000144609 -0)
(0.000916991 -8.49305e-05 -0)
(0.000947477 -1.61358e-05 -0)
(0.000995285 6.6949e-05 -0)
(0.0010911 0.000164061 -0)
(0.00121731 0.000178837 -0)
(0.00130322 0.000123619 -0)
(0.00134021 8.65408e-05 -0)
(0.00135871 6.52367e-05 -0)
(0.00136922 5.39722e-05 -0)
(0.00137502 4.92708e-05 -0)
(0.00137718 4.9072e-05 -0)
(0.00137594 5.19772e-05 -0)
(0.00137124 5.6805e-05 -0)
(0.00136293 6.23047e-05 -0)
(0.00135106 6.69819e-05 -0)
(0.00133624 6.9137e-05 -0)
(0.00131988 6.72999e-05 -0)
(0.00130388 6.09684e-05 -0)
(0.00128998 5.07819e-05 -0)
(0.0012792 3.78665e-05 -0)
(0.00127196 2.32852e-05 -0)
(0.00126835 7.84821e-06 -0)
(0.000229481 -1.16759e-05 -0)
(0.000230154 -3.58738e-05 -0)
(0.000230905 -6.28692e-05 -0)
(0.000229696 -9.54002e-05 -0)
(0.000220518 -0.000136982 -0)
(0.000189957 -0.000187063 -0)
(0.000135492 -0.000215082 -0)
(8.78117e-05 -0.000195414 -0)
(6.39439e-05 -0.000174454 -0)
(5.21653e-05 -0.000158304 -0)
(4.60284e-05 -0.00014625 -0)
(4.27433e-05 -0.000137064 -0)
(4.10573e-05 -0.000129814 -0)
(4.03599e-05 -0.000123839 -0)
(4.0334e-05 -0.000118658 -0)
(4.08105e-05 -0.000113896 -0)
(4.17047e-05 -0.000109234 -0)
(4.2991e-05 -0.000104373 -0)
(4.4697e-05 -9.89957e-05 -0)
(4.69269e-05 -9.27387e-05 -0)
(4.99422e-05 -8.51444e-05 -0)
(5.43933e-05 -7.56236e-05 -0)
(6.18865e-05 -6.36386e-05 -0)
(4.09342e-05 -5.05473e-05 -0)
(0.000189591 -0.00050355 -0)
(0.000283197 -0.000530589 -0)
(0.000385398 -0.000551951 -0)
(0.000472541 -0.000559989 -0)
(0.000550381 -0.000553533 -0)
(0.000620414 -0.000532944 -0)
(0.000681883 -0.000500048 -0)
(0.000734081 -0.000458674 -0)
(0.000777676 -0.000412625 -0)
(0.000814291 -0.000364399 -0)
(0.000845759 -0.000315144 -0)
(0.000873779 -0.000265026 -0)
(0.000899942 -0.000213538 -0)
(0.000926017 -0.000159659 -0)
(0.000954527 -0.000101921 -0)
(0.000989922 -3.86709e-05 -0)
(0.0010407 3.03341e-05 -0)
(0.00111919 9.60969e-05 -0)
(0.00121243 0.000115134 -0)
(0.00128433 9.26358e-05 -0)
(0.00132602 7.03165e-05 -0)
(0.00135038 5.57413e-05 -0)
(0.00136527 4.82301e-05 -0)
(0.0013742 4.61717e-05 -0)
(0.0013786 4.82402e-05 -0)
(0.00137889 5.33759e-05 -0)
(0.00137499 6.05613e-05 -0)
(0.00136662 6.85558e-05 -0)
(0.00135364 7.56412e-05 -0)
(0.00133661 7.95799e-05 -0)
(0.00131736 7.82272e-05 -0)
(0.00129855 7.09177e-05 -0)
(0.00128249 5.88135e-05 -0)
(0.00127031 4.36094e-05 -0)
(0.0012623 2.66927e-05 -0)
(0.00125836 8.97382e-06 -0)
(0.000215095 -1.17697e-05 -0)
(0.000214782 -3.59952e-05 -0)
(0.0002134 -6.2369e-05 -0)
(0.000208896 -9.24718e-05 -0)
(0.000196869 -0.000127187 -0)
(0.00017083 -0.000162898 -0)
(0.000131766 -0.00018313 -0)
(9.57136e-05 -0.000177126 -0)
(7.29006e-05 -0.000164734 -0)
(5.96111e-05 -0.000152984 -0)
(5.1887e-05 -0.000143254 -0)
(4.73862e-05 -0.000135389 -0)
(4.48471e-05 -0.000128954 -0)
(4.3586e-05 -0.000123524 -0)
(4.32264e-05 -0.000118741 -0)
(4.35623e-05 -0.0001143 -0)
(4.44913e-05 -0.000109925 -0)
(4.5987e-05 -0.000105351 -0)
(4.80927e-05 -0.000100304 -0)
(5.0941e-05 -9.4478e-05 -0)
(5.48183e-05 -8.75412e-05 -0)
(6.02974e-05 -7.91848e-05 -0)
(6.83778e-05 -6.9422e-05 -0)
(4.44883e-05 -5.96319e-05 -0)
(0.000187169 -0.000585723 -0)
(0.000273282 -0.000598023 -0)
(0.000379288 -0.000609445 -0)
(0.000473741 -0.000611457 -0)
(0.0005599 -0.000600468 -0)
(0.000638001 -0.00057489 -0)
(0.000705833 -0.000535681 -0)
(0.000761857 -0.000487971 -0)
(0.000807215 -0.000436696 -0)
(0.000844462 -0.000384642 -0)
(0.000876192 -0.000332817 -0)
(0.000904594 -0.000281202 -0)
(0.000931568 -0.00022924 -0)
(0.000959065 -0.000176097 -0)
(0.000989583 -0.000120896 -0)
(0.00102683 -6.32773e-05 -0)
(0.00107615 -5.11368e-06 -0)
(0.00114198 4.49539e-05 -0)
(0.00121523 6.63855e-05 -0)
(0.00127633 6.15874e-05 -0)
(0.00131807 5.13036e-05 -0)
(0.00134546 4.37025e-05 -0)
(0.00136348 4.05255e-05 -0)
(0.00137503 4.15879e-05 -0)
(0.0013815 4.6305e-05 -0)
(0.00138334 5.40367e-05 -0)
(0.00138035 6.4026e-05 -0)
(0.00137198 7.5134e-05 -0)
(0.00135767 8.54334e-05 -0)
(0.00133779 9.19283e-05 -0)
(0.00131468 9.12992e-05 -0)
(0.00129224 8.25935e-05 -0)
(0.0012736 6.79609e-05 -0)
(0.00125993 4.99685e-05 -0)
(0.00125118 3.03891e-05 -0)
(0.00124695 1.01819e-05 -0)
(0.000200822 -1.16165e-05 -0)
(0.000199794 -3.53436e-05 -0)
(0.000197019 -6.05265e-05 -0)
(0.000190805 -8.78836e-05 -0)
(0.000178263 -0.000117033 -0)
(0.000156392 -0.000144306 -0)
(0.000126956 -0.000160622 -0)
(9.88492e-05 -0.000161138 -0)
(7.84288e-05 -0.000154782 -0)
(6.50532e-05 -0.000146938 -0)
(5.65853e-05 -0.000139586 -0)
(5.1323e-05 -0.0001332 -0)
(4.81766e-05 -0.000127732 -0)
(4.64878e-05 -0.000122977 -0)
(4.58686e-05 -0.000118702 -0)
(4.61003e-05 -0.000114679 -0)
(4.70738e-05 -0.000110686 -0)
(4.87637e-05 -0.0001065 -0)
(5.12209e-05 -0.000101891 -0)
(5.45843e-05 -9.66174e-05 -0)
(5.91181e-05 -9.04495e-05 -0)
(6.52649e-05 -8.32521e-05 -0)
(7.36183e-05 -7.52151e-05 -0)
(4.7444e-05 -6.72902e-05 -0)
(0.000188568 -0.000661371 -0)
(0.000268964 -0.000665774 -0)
(0.000377337 -0.000670327 -0)
(0.000477927 -0.000667605 -0)
(0.000572321 -0.000652655 -0)
(0.000659285 -0.000621744 -0)
(0.000734034 -0.000574374 -0)
(0.000793472 -0.000518552 -0)
(0.000839674 -0.000461048 -0)
(0.000876618 -0.000404803 -0)
(0.000907823 -0.000350415 -0)
(0.000935925 -0.000297504 -0)
(0.000963005 -0.000245368 -0)
(0.000991024 -0.000193275 -0)
(0.00102222 -0.000140742 -0)
(0.00105939 -8.80796e-05 -0)
(0.00110564 -3.76471e-05 -0)
(0.00116209 4.11998e-06 -0)
(0.00122241 2.7079e-05 -0)
(0.00127528 3.25135e-05 -0)
(0.00131529 3.13245e-05 -0)
(0.00134392 3.00709e-05 -0)
(0.00136401 3.12948e-05 -0)
(0.00137767 3.56889e-05 -0)
(0.00138607 4.32848e-05 -0)
(0.00138952 5.38847e-05 -0)
(0.00138765 6.70879e-05 -0)
(0.00137947 8.20038e-05 -0)
(0.00136371 9.65961e-05 -0)
(0.00134013 0.000106841 -0)
(0.00131176 0.000107279 -0)
(0.00128455 9.64029e-05 -0)
(0.00126291 7.83169e-05 -0)
(0.00124777 5.68986e-05 -0)
(0.00123843 3.43114e-05 -0)
(0.00123402 1.14468e-05 -0)
(0.000186919 -1.12854e-05 -0)
(0.000185436 -3.4168e-05 -0)
(0.000181876 -5.79012e-05 -0)
(0.000174992 -8.26504e-05 -0)
(0.000163015 -0.000107555 -0)
(0.000144676 -0.000129659 -0)
(0.000121667 -0.000143803 -0)
(9.92178e-05 -0.000147624 -0)
(8.14208e-05 -0.000145365 -0)
(6.87287e-05 -0.000140714 -0)
(6.01294e-05 -0.000135569 -0)
(5.44984e-05 -0.000130681 -0)
(5.09814e-05 -0.000126253 -0)
(4.90043e-05 -0.000122256 -0)
(4.8205e-05 -0.000118571 -0)
(4.83715e-05 -0.000115047 -0)
(4.93984e-05 -0.000111517 -0)
(5.1264e-05 -0.000107802 -0)
(5.40225e-05 -0.000103718 -0)
(5.7806e-05 -9.90785e-05 -0)
(6.28375e-05 -9.37288e-05 -0)
(6.9438e-05 -8.7622e-05 -0)
(7.7955e-05 -8.09677e-05 -0)
(4.99351e-05 -7.43787e-05 -0)
(0.000191446 -0.000733151 -0)
(0.000267908 -0.00073347 -0)
(0.000378189 -0.00073383 -0)
(0.000484345 -0.000728157 -0)
(0.000587417 -0.000710586 -0)
(0.000684969 -0.000674523 -0)
(0.000767748 -0.000616109 -0)
(0.000829853 -0.000549739 -0)
(0.000875465 -0.000484947 -0)
(0.000910841 -0.000424295 -0)
(0.000940571 -0.000367481 -0)
(0.000967623 -0.000313528 -0)
(0.000994105 -0.00026148 -0)
(0.00102184 -0.000210614 -0)
(0.0010527 -0.000160634 -0)
(0.00108869 -0.000112079 -0)
(0.00113147 -6.70611e-05 -0)
(0.00118081 -2.99428e-05 -0)
(0.00123227 -5.91864e-06 -0)
(0.00127887 5.82384e-06 -0)
(0.00131661 1.13686e-05 -0)
(0.00134544 1.55473e-05 -0)
(0.00136685 2.09226e-05 -0)
(0.00138222 2.86372e-05 -0)
(0.00139242 3.91828e-05 -0)
(0.00139762 5.27952e-05 -0)
(0.00139722 6.95336e-05 -0)
(0.00138968 8.89905e-05 -0)
(0.00137257 0.000109324 -0)
(0.0013442 0.000125285 -0)
(0.00130841 0.000127331 -0)
(0.00127486 0.000112807 -0)
(0.00124989 8.98719e-05 -0)
(0.00123352 6.42495e-05 -0)
(0.00122391 3.83335e-05 -0)
(0.00121949 1.27225e-05 -0)
(0.00017355 -1.0842e-05 -0)
(0.000171825 -3.26865e-05 -0)
(0.00016793 -5.49104e-05 -0)
(0.000161013 -7.73614e-05 -0)
(0.000150058 -9.90845e-05 -0)
(0.000134643 -0.000117877 -0)
(0.000116176 -0.000130699 -0)
(9.79116e-05 -0.000136299 -0)
(8.25747e-05 -0.00013681 -0)
(7.09308e-05 -0.000134668 -0)
(6.26049e-05 -0.00013146 -0)
(5.69128e-05 -0.000127997 -0)
(5.32319e-05 -0.000124619 -0)
(5.10967e-05 -0.000121422 -0)
(5.01939e-05 -0.000118383 -0)
(5.0333e-05 -0.000115418 -0)
(5.14207e-05 -0.000112414 -0)
(5.34431e-05 -0.000109238 -0)
(5.64552e-05 -0.000105745 -0)
(6.05778e-05 -0.000101795 -0)
(6.5992e-05 -9.72806e-05 -0)
(7.29215e-05 -9.21895e-05 -0)
(8.15642e-05 -8.66967e-05 -0)
(5.20355e-05 -8.12011e-05 -0)
(0.000194759 -0.000802711 -0)
(0.000268557 -0.000801151 -0)
(0.000380525 -0.000799504 -0)
(0.000491873 -0.000792991 -0)
(0.000604501 -0.000775175 -0)
(0.000715972 -0.000735349 -0)
(0.000808905 -0.00066071 -0)
(0.00087217 -0.000580359 -0)
(0.00091494 -0.000507356 -0)
(0.000947097 -0.000442406 -0)
(0.000974283 -0.000383518 -0)
(0.000999526 -0.000328865 -0)
(0.00102475 -0.000277167 -0)
(0.00105153 -0.000227634 -0)
(0.00108134 -0.000180013 -0)
(0.00111554 -0.000134806 -0)
(0.00115492 -9.36313e-05 -0)
(0.00119878 -5.92911e-05 -0)
(0.00124387 -3.44948e-05 -0)
(0.00128566 -1.86349e-05 -0)
(0.00132113 -8.09574e-06 -0)
(0.00134965 5.9291e-07 -0)
(0.00137186 9.70836e-06 -0)
(0.00138863 2.05662e-05 -0)
(0.00140056 3.39765e-05 -0)
(0.00140773 5.05802e-05 -0)
(0.00140937 7.10007e-05 -0)
(0.00140334 9.56619e-05 -0)
(0.00138549 0.000123625 -0)
(0.00135094 0.000148737 -0)
(0.00130427 0.000153347 -0)