/*--------------------------------*- C++ -*----------------------------------*\
  =========                 |
  \\      /  F ield         | OpenFOAM: The Open Source CFD Toolbox
   \\    /   O peration     | Website:  https://openfoam.org
    \\  /    A nd           | Version:  8
     \\/     M anipulation  |
\*---------------------------------------------------------------------------*/
FoamFile
{
    version     2.0;
    format      ascii;
    class       volScalarField;
    location    "1";
    object      p;
}
// * * * * * * * * * * * * * * * * * * * * * * * * * * * * * * * * * * * * * //

dimensions      [1 -1 -2 0 0 0 0];

internalField   nonuniform List<scalar> 
60
(
99.1667
97.5
95.8333
94.1667
92.5
90.8333
89.1667
87.5
85.8333
84.1667
82.5
80.8333
79.1667
77.5
75.8333
74.1667
72.5
70.8333
69.1667
67.5
65.8333
64.1667
62.5
60.8333
59.1667
57.5
55.8333
54.1667
52.5
50.8333
49.1667
47.5
45.8333
44.1667
42.5
40.8333
39.1667
37.5
35.8333
34.1667
32.5
30.8333
29.1667
27.5
25.8333
24.1667
22.5
20.8333
19.1667
17.5
15.8333
14.1667
12.5
10.8333
9.16667
7.5
5.83333
4.16667
2.5
0.833333
)
;

boundaryField
{
    inlet
    {
        type            fixedValue;
        value           uniform 100;
    }
    outlet
    {
        type            fixedValue;
        value           uniform 0;
    }
    frontAndback
    {
        type            empty;
    }
}


// ************************************************************************* //
