/*--------------------------------*- C++ -*----------------------------------*\
  =========                 |
  \\      /  F ield         | OpenFOAM: The Open Source CFD Toolbox
   \\    /   O peration     | Website:  https://openfoam.org
    \\  /    A nd           | Version:  7
     \\/     M anipulation  |
\*---------------------------------------------------------------------------*/
FoamFile
{
    version     2.0;
    format      ascii;
    class       volVectorField;
    location    "1";
    object      U;
}
// * * * * * * * * * * * * * * * * * * * * * * * * * * * * * * * * * * * * * //

dimensions      [0 1 -1 0 0 0 0];

internalField   nonuniform List<vector> 
60
(
(-7.99361e-17 -0 -0)
(-5.32907e-17 -0 -0)
(-6.66134e-17 -0 -0)
(-5.32907e-17 -0 -0)
(-5.32907e-17 -0 -0)
(-5.32907e-17 -0 -0)
(-7.99361e-17 -0 -0)
(-5.32907e-17 -0 -0)
(-6.66134e-17 -0 -0)
(-5.32907e-17 -0 -0)
(-5.32907e-17 -0 -0)
(-6.66134e-17 -0 -0)
(-5.32907e-17 -0 -0)
(-5.32907e-17 -0 -0)
(-3.9968e-17 -0 -0)
(-2.66454e-17 -0 -0)
(-2.66454e-17 -0 -0)
(-2.66454e-17 -0 -0)
(-1.33227e-17 -0 -0)
(-2.66454e-17 -0 -0)
(-2.66454e-17 -0 -0)
(-1.33227e-17 -0 -0)
(-1.33227e-17 -0 -0)
(-3.9968e-17 -0 -0)
(-2.66454e-17 -0 -0)
(-1.33227e-17 -0 -0)
(-3.9968e-17 -0 -0)
(-3.9968e-17 -0 -0)
(-5.32907e-17 -0 -0)
(-3.9968e-17 -0 -0)
(-3.9968e-17 -0 -0)
(-2.66454e-17 -0 -0)
(-2.66454e-17 -0 -0)
(-2.66454e-17 -0 -0)
(-1.33227e-17 -0 -0)
(-1.33227e-17 -0 -0)
(-2.66454e-17 -0 -0)
(-1.33227e-17 -0 -0)
(-1.33227e-17 -0 -0)
(-2.66454e-17 -0 -0)
(-1.33227e-17 -0 -0)
(-2.66454e-17 -0 -0)
(-2.66454e-17 -0 -0)
(-0 -0 -0)
(-2.66454e-17 -0 -0)
(-3.9968e-17 -0 -0)
(-2.66454e-17 -0 -0)
(-3.9968e-17 -0 -0)
(-2.66454e-17 -0 -0)
(-2.66454e-17 -0 -0)
(-3.9968e-17 -0 -0)
(-2.66454e-17 -0 -0)
(-2.66454e-17 -0 -0)
(-3.9968e-17 -0 -0)
(-2.66454e-17 -0 -0)
(-3.9968e-17 -0 -0)
(-2.66454e-17 -0 -0)
(-2.66454e-17 -0 -0)
(-1.33227e-17 -0 -0)
(-0 -0 -0)
)
;

boundaryField
{
    inlet
    {
        type            calculated;
        value           uniform (-8.52651e-17 -0 -0);
    }
    outlet
    {
        type            calculated;
        value           uniform (-0 -0 -0);
    }
    frontAndback
    {
        type            empty;
    }
}


// ************************************************************************* //
