/*--------------------------------*- C++ -*----------------------------------*\
  =========                 |
  \\      /  F ield         | OpenFOAM: The Open Source CFD Toolbox
   \\    /   O peration     | Website:  https://openfoam.org
    \\  /    A nd           | Version:  8
     \\/     M anipulation  |
\*---------------------------------------------------------------------------*/
FoamFile
{
    version     2.0;
    format      ascii;
    class       volVectorField;
    location    "1";
    object      U;
}
// * * * * * * * * * * * * * * * * * * * * * * * * * * * * * * * * * * * * * //

dimensions      [0 1 -1 0 0 0 0];

internalField   nonuniform List<vector> 
60
(
(0.001 -0 -0)
(0.001 -0 -0)
(0.001 -0 -0)
(0.001 -0 -0)
(0.001 -0 -0)
(0.001 -0 -0)
(0.001 -0 -0)
(0.001 -0 -0)
(0.001 -0 -0)
(0.001 -0 -0)
(0.001 -0 -0)
(0.001 -0 -0)
(0.001 -0 -0)
(0.001 -0 -0)
(0.001 -0 -0)
(0.001 -0 -0)
(0.001 -0 -0)
(0.001 -0 -0)
(0.001 -0 -0)
(0.001 -0 -0)
(0.001 -0 -0)
(0.001 -0 -0)
(0.001 -0 -0)
(0.001 -0 -0)
(0.001 -0 -0)
(0.001 -0 -0)
(0.001 -0 -0)
(0.001 -0 -0)
(0.001 -0 -0)
(0.001 -0 -0)
(0.001 -0 -0)
(0.001 -0 -0)
(0.001 -0 -0)
(0.001 -0 -0)
(0.001 -0 -0)
(0.001 -0 -0)
(0.001 -0 -0)
(0.001 -0 -0)
(0.001 -0 -0)
(0.001 -0 -0)
(0.001 -0 -0)
(0.001 -0 -0)
(0.001 -0 -0)
(0.001 -0 -0)
(0.001 -0 -0)
(0.001 -0 -0)
(0.001 -0 -0)
(0.001 -0 -0)
(0.001 -0 -0)
(0.001 -0 -0)
(0.001 -0 -0)
(0.001 -0 -0)
(0.001 -0 -0)
(0.001 -0 -0)
(0.001 -0 -0)
(0.001 -0 -0)
(0.001 -0 -0)
(0.001 -0 -0)
(0.001 -0 -0)
(0.001 -0 -0)
)
;

boundaryField
{
    inlet
    {
        type            calculated;
        value           uniform (0.001 -0 -0);
    }
    outlet
    {
        type            calculated;
        value           uniform (0.001 -0 -0);
    }
    frontAndback
    {
        type            empty;
    }
}


// ************************************************************************* //
